
                                 *****************
                                 * O   R   C   A *
                                 *****************

           --- An Ab Initio, DFT and Semiempirical electronic structure package ---

                  #######################################################
                  #                        -***-                        #
                  #          Department of theory and spectroscopy      #
                  #               Directorship: Frank Neese             #
                  #        Max Planck Institute fuer Kohlenforschung    #
                  #                Kaiser Wilhelm Platz 1               #
                  #                 D-45470 Muelheim/Ruhr               #
                  #                      Germany                        #
                  #                                                     #
                  #                  All rights reserved                #
                  #                        -***-                        #
                  #######################################################


                         Program Version 4.2.1 -  RELEASE  -


 With contributions from (in alphabetic order):
   Daniel Aravena         : Magnetic Suceptibility
   Michael Atanasov       : Ab Initio Ligand Field Theory (pilot matlab implementation)
   Alexander A. Auer      : GIAO ZORA, VPT2
   Ute Becker             : Parallelization
   Giovanni Bistoni       : ED, misc. LED, open-shell LED, HFLD
   Martin Brehm           : Molecular dynamics
   Dmytro Bykov           : SCF Hessian
   Vijay G. Chilkuri      : MRCI spin determinant printing, contributions to CSF-ICE
   Dipayan Datta          : RHF DLPNO-CCSD density
   Achintya Kumar Dutta   : EOM-CC, STEOM-CC
   Dmitry Ganyushin       : Spin-Orbit,Spin-Spin,Magnetic field MRCI
   Miquel Garcia          : C-PCM Hessian, Gaussian charge scheme
   Yang Guo               : DLPNO-NEVPT2, CIM, IAO-localization
   Andreas Hansen         : Spin unrestricted coupled pair/coupled cluster methods
   Benjamin Helmich-Paris : CASSCF linear response (MC-RPA)
   Lee Huntington         : MR-EOM, pCC
   Robert Izsak           : Overlap fitted RIJCOSX, COSX-SCS-MP3, EOM
   Christian Kollmar      : KDIIS, OOCD, Brueckner-CCSD(T), CCSD density
   Simone Kossmann        : Meta GGA functionals, TD-DFT gradient, OOMP2, MP2 Hessian
   Martin Krupicka        : AUTO-CI
   Lucas Lang             : DCDCAS
   Dagmar Lenk            : GEPOL surface, SMD
   Dimitrios Liakos       : Extrapolation schemes; Compound Job, initial MDCI parallelization
   Dimitrios Manganas     : Further ROCIS development; embedding schemes
   Dimitrios Pantazis     : SARC Basis sets
   Taras Petrenko         : DFT Hessian,TD-DFT gradient, ASA, ECA, R-Raman, ABS, FL, XAS/XES, NRVS
   Peter Pinski           : DLPNO-MP2, DLPNO-MP2 Gradient
   Christoph Reimann      : Effective Core Potentials
   Marius Retegan         : Local ZFS, SOC
   Christoph Riplinger    : Optimizer, TS searches, QM/MM, DLPNO-CCSD(T), (RO)-DLPNO pert. Triples
   Tobias Risthaus        : Range-separated hybrids, TD-DFT gradient, RPA, STAB
   Michael Roemelt        : Original ROCIS implementation
   Masaaki Saitow         : Open-shell DLPNO-CCSD energy and density
   Barbara Sandhoefer     : DKH picture change effects
   Avijit Sen             : IP-ROCIS
   Kantharuban Sivalingam : CASSCF convergence, NEVPT2, FIC-MRCI
   Bernardo de Souza      : ESD, SOC TD-DFT
   Georgi Stoychev        : AutoAux, RI-MP2 NMR
   Willem Van den Heuvel  : Paramagnetic NMR
   Boris Wezisla          : Elementary symmetry handling
   Frank Wennmohs         : Technical directorship


 We gratefully acknowledge several colleagues who have allowed us to
 interface, adapt or use parts of their codes:
   Stefan Grimme, W. Hujo, H. Kruse,             : VdW corrections, initial TS optimization,
                  C. Bannwarth                     DFT functionals, gCP, sTDA/sTD-DF
   Ed Valeev, F. Pavosevic, A. Kumar             : LibInt (2-el integral package), F12 methods
   Garnet Chan, S. Sharma, J. Yang, R. Olivares  : DMRG
   Ulf Ekstrom                                   : XCFun DFT Library
   Mihaly Kallay                                 : mrcc  (arbitrary order and MRCC methods)
   Andreas Klamt, Michael Diedenhofen            : otool_cosmo (COSMO solvation model)
   Jiri Pittner, Ondrej Demel                    : Mk-CCSD
   Frank Weinhold                                : gennbo (NPA and NBO analysis)
   Christopher J. Cramer and Donald G. Truhlar   : smd solvation model
   Lars Goerigk                                  : TD-DFT with DH, B97 family of functionals
   V. Asgeirsson, H. Jonsson                     : NEB implementation
   FAccTs GmbH                                   : IRC, NEB, NEB-TS, Multilevel, MM, QM/MM, CI optimization
   S Lehtola, MJT Oliveira, MAL Marques          : LibXC Library


 Your calculation uses the libint2 library for the computation of 2-el integrals
 For citations please refer to: http://libint.valeyev.net

 Your ORCA version has been built with support for libXC version: 4.2.3
 For citations please refer to: https://tddft.org/programs/libxc/

 This ORCA versions uses:
   CBLAS   interface :  Fast vector & matrix operations
   LAPACKE interface :  Fast linear algebra routines
   SCALAPACK package :  Parallel linear algebra routines


SCAN-COORDS
----- Orbital basis set information -----
Your calculation utilizes the basis: def2-TZVP
   F. Weigend and R. Ahlrichs, Phys. Chem. Chem. Phys. 7, 3297 (2005).

================================================================================
                                        WARNINGS
                       Please study these warnings very carefully!
================================================================================


INFO   : the flag for use of LIBINT has been found!

================================================================================
                                       INPUT FILE
================================================================================
NAME = orca_atom.inp
|  1> ! UKS B3LYP def2-TZVP Grid4 TightSCF NOFINALGRID KeepDens
|  2> %output PrintLevel Mini Print[ P_Mulliken ] 1 Print[P_AtCharges_M] 1 end
|  3> %pal nprocs 4 end
|  4> %coords
|  5>     CTyp xyz
|  6>     Charge 0
|  7>     Mult 4
|  8>     Units Angs
|  9>     coords
| 10>         P 0.0 0.0 0.0
| 11>     end
| 12> end
| 13> 
| 14>                          ****END OF INPUT****
================================================================================

                       ****************************
                       * Single Point Calculation *
                       ****************************

---------------------------------
CARTESIAN COORDINATES (ANGSTROEM)
---------------------------------
  P      0.000000    0.000000    0.000000

----------------------------
CARTESIAN COORDINATES (A.U.)
----------------------------
  NO LB      ZA    FRAG     MASS         X           Y           Z
   0 P    15.0000    0    30.974    0.000000    0.000000    0.000000


Checking for AutoStart:
The File: orca_atom.gbw exists
Trying to determine its content:
     ... Fine, the file contains calculation information
     ... Fine, the calculation information was read
     ... Fine, the file contains a basis set
     ... Fine, the basis set was read
     ... Fine, the file contains a geometry
     ... Fine, the geometry was read
     ... Fine, the file contains a set of orbitals
     ... Fine, the orbitals can be read
     => possible old guess file was deleted
     => GBW file was renamed to GES file
     => GES file is set as startup file
     => Guess is set to MORead
     ... now leaving AutoStart



           ************************************************************
           *        Program running with 4 parallel MPI-processes     *
           *              working on a common directory               *
           ************************************************************


           ************************************************************
           *        Program running with 4 parallel MPI-processes     *
           *              working on a common directory               *
           ************************************************************

Diagonalization of the overlap matrix:
Smallest eigenvalue                        ... 5.460e-02
Time for diagonalization                   ...    0.001 sec
Threshold for overlap eigenvalues          ... 1.000e-08
Number of eigenvalues below threshold      ... 0
Time for construction of square roots      ...    0.001 sec
Total time needed                          ...    0.002 sec

-------------------
DFT GRID GENERATION
-------------------

General Integration Accuracy     IntAcc      ...  4.670
Radial Grid Type                 RadialGrid  ... Gauss-Chebyshev
Angular Grid (max. acc.)         AngularGrid ... Lebedev-302
Angular grid pruning method      GridPruning ... 3 (G Style)
Weight generation scheme         WeightScheme... Becke
Basis function cutoff            BFCut       ...    1.0000e-11
Integration weight cutoff        WCut        ...    1.0000e-14
Grids for H and He will be reduced by one unit

# of grid points (after initial pruning)     ...   6846 (   0.0 sec)
# of grid points (after weights+screening)   ...   6846 (   0.0 sec)
Grid point division into batches done        ...    0.0 sec
Reduced shell lists constructed in    0.0 sec

Total number of grid points                  ...     6846
Total number of batches                      ...      107
Average number of points per batch           ...       63
Average number of grid points per atom       ...     6846
Average number of shells per batch           ...     4.32 (33.24%)
Average number of basis functions per batch  ...    13.75 (37.16%)
Average number of large shells per batch     ...     3.32 (76.86%)
Average number of large basis fcns per batch ...    10.39 (75.58%)
Maximum spatial batch extension              ...  27.84, 21.45, 18.12 au
Average spatial batch extension              ...   3.79,  3.54,  3.29 au

Time for grid setup =    0.054 sec

--------------
SCF ITERATIONS
--------------
ITER       Energy         Delta-E        Max-DP      RMS-DP      [F,P]     Damp
               ***  Starting incremental Fock matrix formation  ***
  0   -341.2238795404   0.000000000000 0.00000004  0.00000000  0.0000000 0.7000
                 **** Energy Check signals convergence ****

               *****************************************************
               *                     SUCCESS                       *
               *           SCF CONVERGED AFTER   1 CYCLES          *
               *****************************************************

Total Energy       :         -341.22387954 Eh           -9285.17381 eV
  Last Energy change         ...   -3.3140e-11  Tolerance :   1.0000e-08
  Last MAX-Density change    ...    1.8067e-08  Tolerance :   1.0000e-07
             **** THE GBW FILE WAS UPDATED (orca_atom.gbw) ****
             **** DENSITY FILE WAS UPDATED (orca_atom.scfp) ****
             **** ENERGY FILE WAS UPDATED (orca_atom.en.tmp) ****
----------------------
UHF SPIN CONTAMINATION
----------------------

Warning: in a DFT calculation there is little theoretical justification to 
         calculate <S**2> as in Hartree-Fock theory. We will do it anyways
         but you should keep in mind that the values have only limited relevance

Expectation value of <S**2>     :     3.750227
Ideal value S*(S+1) for S=1.5   :     3.750000
Deviation                       :     0.000227

             **** THE GBW FILE WAS UPDATED (orca_atom.gbw) ****
             **** DENSITY FILE WAS UPDATED (orca_atom.scfp) ****
----------------
ORBITAL ENERGIES
----------------
                 SPIN UP ORBITALS
  NO   OCC          E(Eh)            E(eV) 
   0   1.0000     -77.098536     -2097.9578 
   1   1.0000      -6.579481      -179.0368 
   2   1.0000      -4.742759      -129.0570 
   3   1.0000      -4.742759      -129.0570 
   4   1.0000      -4.742759      -129.0570 
   5   1.0000      -0.595417       -16.2021 
   6   1.0000      -0.257026        -6.9940 
   7   1.0000      -0.257026        -6.9940 
   8   1.0000      -0.257026        -6.9940 
   9   0.0000       0.225912         6.1474 
  10   0.0000       0.225912         6.1474 
  11   0.0000       0.225912         6.1474 
  12   0.0000       0.249079         6.7778 
  13   0.0000       0.249079         6.7778 
  14   0.0000       0.249079         6.7778 
  15   0.0000       0.249079         6.7778 
  16   0.0000       0.249079         6.7778 
  17   0.0000       0.272089         7.4039 
  18   0.0000       1.177887        32.0519 
  19   0.0000       1.177887        32.0519 
  20   0.0000       1.177887        32.0519 
  21   0.0000       1.177887        32.0519 
  22   0.0000       1.177887        32.0519 
  23   0.0000       1.300820        35.3971 
  24   0.0000       1.300820        35.3971 
  25   0.0000       1.300820        35.3971 
  26   0.0000       1.300820        35.3971 
  27   0.0000       1.300820        35.3971 
  28   0.0000       1.300820        35.3971 
  29   0.0000       1.300820        35.3971 
  30   0.0000       1.435040        39.0494 
  31   0.0000       1.435040        39.0494 
  32   0.0000       1.435040        39.0494 
  33   0.0000       7.149716       194.5537 
  34   0.0000       7.149716       194.5537 
  35   0.0000       7.149716       194.5537 
  36   0.0000      12.591350       342.6281 

                 SPIN DOWN ORBITALS
  NO   OCC          E(Eh)            E(eV) 
   0   1.0000     -77.084277     -2097.5698 
   1   1.0000      -6.566132      -178.6735 
   2   1.0000      -4.722128      -128.4956 
   3   1.0000      -4.722128      -128.4956 
   4   1.0000      -4.722128      -128.4956 
   5   1.0000      -0.478966       -13.0333 
   6   0.0000      -0.113470        -3.0877 
   7   0.0000      -0.113470        -3.0877 
   8   0.0000      -0.113470        -3.0877 
   9   0.0000       0.262352         7.1390 
  10   0.0000       0.262352         7.1390 
  11   0.0000       0.262352         7.1390 
  12   0.0000       0.313790         8.5387 
  13   0.0000       0.327261         8.9052 
  14   0.0000       0.327261         8.9052 
  15   0.0000       0.327261         8.9052 
  16   0.0000       0.327261         8.9052 
  17   0.0000       0.327261         8.9052 
  18   0.0000       1.228251        33.4224 
  19   0.0000       1.228251        33.4224 
  20   0.0000       1.228251        33.4224 
  21   0.0000       1.228251        33.4224 
  22   0.0000       1.228251        33.4224 
  23   0.0000       1.382526        37.6205 
  24   0.0000       1.382526        37.6205 
  25   0.0000       1.382526        37.6205 
  26   0.0000       1.382526        37.6205 
  27   0.0000       1.382526        37.6205 
  28   0.0000       1.382526        37.6205 
  29   0.0000       1.382526        37.6205 
  30   0.0000       1.487396        40.4741 
  31   0.0000       1.487396        40.4741 
  32   0.0000       1.487396        40.4741 
  33   0.0000       7.184977       195.5132 
  34   0.0000       7.184977       195.5132 
  35   0.0000       7.184977       195.5132 
  36   0.0000      12.617212       343.3318 

                    ********************************
                    * MULLIKEN POPULATION ANALYSIS *
                    ********************************

--------------------------------------------
MULLIKEN ATOMIC CHARGES AND SPIN POPULATIONS
--------------------------------------------
   0 P :    0.000000    3.000000
Sum of atomic charges         :    0.0000000
Sum of atomic spin populations:    3.0000000

Total SCF time: 0 days 0 hours 0 min 0 sec 

-------------------------   --------------------
FINAL SINGLE POINT ENERGY      -341.223879540390
-------------------------   --------------------


                            ***************************************
                            *     ORCA property calculations      *
                            ***************************************

                                    ---------------------
                                    Active property flags
                                    ---------------------
   (+) Dipole Moment


------------------------------------------------------------------------------
                       ORCA ELECTRIC PROPERTIES CALCULATION
------------------------------------------------------------------------------

Dipole Moment Calculation                       ... on
Quadrupole Moment Calculation                   ... off
Polarizability Calculation                      ... off
GBWName                                         ... orca_atom.gbw
Electron density file                           ... orca_atom.scfp
The origin for moment calculation is the CENTER OF MASS  = ( 0.000000,  0.000000  0.000000)

-------------
DIPOLE MOMENT
-------------
                                X             Y             Z
Electronic contribution:      0.00000      -0.00000      -0.00000
Nuclear contribution   :      0.00000       0.00000       0.00000
                        -----------------------------------------
Total Dipole Moment    :      0.00000      -0.00000      -0.00000
                        -----------------------------------------
Magnitude (a.u.)       :      0.00000
Magnitude (Debye)      :      0.00000



--------------------
Rotational spectrum 
--------------------
 
Rotational constants in cm-1:     0.000000     0.000000     0.000000 
Rotational constants in MHz :     0.000000     0.000000     0.000000 

 Dipole components along the rotational axes: 
x,y,z [a.u.] :     0.000000    -0.000000    -0.000000 
x,y,z [Debye]:     0.000000    -0.000000    -0.000000 

 

Timings for individual modules:

Sum of individual times         ...        1.348 sec (=   0.022 min)
GTO integral calculation        ...        0.571 sec (=   0.010 min)  42.4 %
SCF iterations                  ...        0.777 sec (=   0.013 min)  57.6 %
                             ****ORCA TERMINATED NORMALLY****
TOTAL RUN TIME: 0 days 0 hours 0 minutes 1 seconds 745 msec
