[Molden Format]
[Title]
 Molden file created by orca_2mkl for BaseName=orca_atom

[Atoms] AU
P    1  15          0.0000000000         0.0000000000         0.0000000000 
[GTO]
  1 0
s   7 1.0 
    52426.9992330000         1.3212792146
     7863.2660552000         2.4617576015
     1789.5227333000         4.1682597561
      506.2730016500         6.3159100221
      164.6069854600         7.8855635848
       58.3919187220         6.7611895652
       21.6436632010         2.4503453444
s   3 1.0 
       99.0138376200         1.9732022792
       30.5504398170         3.5685473278
        5.4537087661        -3.0179252192
s   2 1.0 
        2.6503362563         1.0100297906
        1.2726688867         0.2897277443
s   1 1.0 
        0.3164500520         0.3007038377
s   1 1.0 
        0.1141746694         0.1399869058
p   5 1.0 
      472.2721924800        11.4356014241
      111.5888275600        14.8375861284
       35.4459364180        16.0017708610
       12.9907768750        12.8297404423
        5.0486221658         6.5532023278
p   1 1.0 
        1.9934049566         3.3762492844
p   1 1.0 
        0.6652728443         0.8564259801
p   1 1.0 
        0.2551683213         0.2585077297
p   1 1.0 
        0.0903577623         0.0706149932
d   2 1.0 
        3.1200000000         3.8292136668
        0.6480000000         1.2233911243
d   1 1.0 
        0.2180000000         0.1982754514
f   1 1.0 
        0.4520000000         0.9551279577

[5D]
[7F]
[9G]
[MO]
 Sym=     1a
 Ene= -7.70985362830464E+01
 Spin= Alpha
 Occup= 1.000000
  1       0.998053268807
  2      -0.030014623821
  3      -0.009680104328
  4       0.002742278067
  5      -0.001198481227
  6      -0.000000000000
  7       0.000000000000
  8      -0.000000000000
  9       0.000000000000
 10      -0.000000000000
 11       0.000000000000
 12      -0.000000000000
 13       0.000000000000
 14       0.000000000000
 15       0.000000000000
 16       0.000000000000
 17      -0.000000000000
 18      -0.000000000000
 19      -0.000000000000
 20       0.000000000000
 21       0.000000000000
 22       0.000000000000
 23       0.000000000000
 24      -0.000000000000
 25      -0.000000000000
 26      -0.000000000000
 27      -0.000000000000
 28      -0.000000000000
 29       0.000000000000
 30       0.000000000000
 31      -0.000000000000
 32       0.000000000000
 33      -0.000000000000
 34       0.000000000000
 35       0.000000000000
 36      -0.000000000000
 37       0.000000000000
 Sym=     1a
 Ene= -6.57948078131588E+00
 Spin= Alpha
 Occup= 1.000000
  1      -0.282740645980
  2      -0.264440082679
  3       0.784465516098
  4       0.027449451218
  5      -0.007983507266
  6      -0.000000000001
  7       0.000000000000
  8      -0.000000000001
  9      -0.000000000000
 10       0.000000000000
 11      -0.000000000000
 12       0.000000000000
 13      -0.000000000000
 14      -0.000000000000
 15      -0.000000000000
 16       0.000000000000
 17       0.000000000000
 18       0.000000000000
 19      -0.000000000000
 20      -0.000000000000
 21       0.000000000000
 22      -0.000000000000
 23      -0.000000000000
 24      -0.000000000000
 25       0.000000000000
 26      -0.000000000000
 27       0.000000000000
 28       0.000000000000
 29       0.000000000000
 30      -0.000000000000
 31       0.000000000000
 32      -0.000000000000
 33      -0.000000000000
 34      -0.000000000000
 35       0.000000000000
 36       0.000000000000
 37       0.000000000000
 Sym=     1a
 Ene= -4.74275923970695E+00
 Spin= Alpha
 Occup= 1.000000
  1      -0.000000000000
  2      -0.000000000000
  3       0.000000000002
  4      -0.000000000001
  5       0.000000000001
  6       0.043588487394
  7      -0.234226852206
  8       0.678432513824
  9       0.020549900485
 10      -0.110426830376
 11       0.319848691214
 12       0.004570348040
 13      -0.024559196683
 14       0.071135129837
 15      -0.000803473682
 16       0.004317541689
 17      -0.012505656948
 18       0.000244953600
 19      -0.001316281299
 20       0.003812577517
 21      -0.000000000000
 22      -0.000000000000
 23       0.000000000000
 24       0.000000000000
 25       0.000000000000
 26       0.000000000000
 27       0.000000000000
 28      -0.000000000000
 29      -0.000000000000
 30      -0.000000000000
 31       0.000000000000
 32       0.000000000000
 33       0.000000000000
 34       0.000000000000
 35      -0.000000000000
 36       0.000000000000
 37      -0.000000000000
 Sym=     1a
 Ene= -4.74275923970673E+00
 Spin= Alpha
 Occup= 1.000000
  1      -0.000000000000
  2      -0.000000000000
  3       0.000000000001
  4      -0.000000000002
  5       0.000000000001
  6       0.231590530549
  7      -0.638736896305
  8      -0.235401473657
  9       0.109183929992
 10      -0.301134093886
 11      -0.110980608572
 12       0.024282772603
 13      -0.066972957700
 14      -0.024682358306
 15      -0.004268945943
 16       0.011773941170
 17       0.004339193678
 18       0.001301466000
 19      -0.003589500621
 20      -0.001322882302
 21       0.000000000000
 22       0.000000000000
 23       0.000000000000
 24       0.000000000000
 25       0.000000000000
 26      -0.000000000000
 27       0.000000000000
 28      -0.000000000000
 29      -0.000000000000
 30       0.000000000000
 31      -0.000000000000
 32      -0.000000000000
 33       0.000000000000
 34       0.000000000000
 35      -0.000000000000
 36      -0.000000000000
 37      -0.000000000000
 Sym=     1a
 Ene= -4.74275923970625E+00
 Spin= Alpha
 Occup= 1.000000
  1       0.000000000000
  2       0.000000000000
  3      -0.000000000000
  4      -0.000000000000
  5       0.000000000000
  6      -0.679336971074
  7      -0.232778455501
  8      -0.036719487032
  9      -0.320275099828
 10      -0.109743980157
 11      -0.017311493229
 12      -0.071229964153
 13      -0.024407329127
 14      -0.003850118360
 15       0.012522328955
 16       0.004290843157
 17       0.000676856280
 18      -0.003817660282
 19      -0.001308141765
 20      -0.000206351977
 21       0.000000000000
 22       0.000000000000
 23       0.000000000000
 24       0.000000000000
 25      -0.000000000000
 26       0.000000000000
 27      -0.000000000000
 28       0.000000000000
 29      -0.000000000000
 30       0.000000000000
 31       0.000000000000
 32       0.000000000000
 33       0.000000000000
 34      -0.000000000000
 35      -0.000000000000
 36       0.000000000000
 37      -0.000000000000
 Sym=     1a
 Ene= -5.95417366625331E-01
 Spin= Alpha
 Occup= 1.000000
  1       0.082020936592
  2       0.091054095022
  3      -0.466948296519
  4       0.741131828225
  5       0.441798340643
  6      -0.000000000001
  7      -0.000000000000
  8       0.000000000005
  9      -0.000000000001
 10       0.000000000003
 11       0.000000000002
 12       0.000000000002
 13      -0.000000000006
 14      -0.000000000008
 15       0.000000000004
 16      -0.000000000000
 17      -0.000000000017
 18      -0.000000000005
 19       0.000000000002
 20       0.000000000009
 21       0.000000000000
 22       0.000000000000
 23       0.000000000001
 24       0.000000000004
 25       0.000000000001
 26      -0.000000000003
 27      -0.000000000004
 28      -0.000000000002
 29      -0.000000000011
 30       0.000000000001
 31       0.000000000001
 32      -0.000000000000
 33      -0.000000000000
 34      -0.000000000001
 35       0.000000000001
 36       0.000000000000
 37       0.000000000001
 Sym=     1a
 Ene= -2.57026131889630E-01
 Spin= Alpha
 Occup= 1.000000
  1      -0.000000000002
  2      -0.000000000001
  3       0.000000000010
  4      -0.000000000043
  5       0.000000000041
  6       0.190987796066
  7       0.032867550911
  8      -0.025244878655
  9       0.087025123164
 10       0.014976363543
 11      -0.011503031708
 12      -0.227258716112
 13      -0.039109501108
 14       0.030039190092
 15      -0.531677681699
 16      -0.091497695824
 17       0.070277467113
 18      -0.370752666231
 19      -0.063803721425
 20       0.049006304416
 21      -0.000000000001
 22       0.000000000006
 23      -0.000000000001
 24       0.000000000002
 25       0.000000000001
 26      -0.000000000003
 27       0.000000000004
 28      -0.000000000004
 29       0.000000000007
 30       0.000000000001
 31      -0.000000000000
 32      -0.000000000001
 33      -0.000000000000
 34       0.000000000000
 35       0.000000000000
 36      -0.000000000001
 37       0.000000000000
 Sym=     1a
 Ene= -2.57026131886825E-01
 Spin= Alpha
 Occup= 1.000000
  1       0.000000000001
  2       0.000000000001
  3      -0.000000000009
  4       0.000000000039
  5      -0.000000000041
  6      -0.026813720062
  7       0.188768710820
  8       0.042910561364
  9      -0.012217886896
 10       0.086013979147
 11       0.019552541913
 12       0.031905973684
 13      -0.224618199407
 14      -0.051059802161
 15       0.074644855924
 16      -0.525500124144
 17      -0.119455736218
 18       0.052051798125
 19      -0.366444894873
 20      -0.083299589614
 21       0.000000000001
 22      -0.000000000002
 23       0.000000000005
 24       0.000000000001
 25       0.000000000001
 26       0.000000000004
 27      -0.000000000004
 28       0.000000000002
 29       0.000000000005
 30       0.000000000003
 31       0.000000000000
 32       0.000000000000
 33       0.000000000000
 34       0.000000000000
 35       0.000000000000
 36      -0.000000000000
 37       0.000000000000
 Sym=     1a
 Ene= -2.57026131884503E-01
 Spin= Alpha
 Occup= 1.000000
  1      -0.000000000001
  2      -0.000000000001
  3       0.000000000003
  4       0.000000000003
  5      -0.000000000018
  6       0.031600699641
  7      -0.038470975511
  8       0.188984914396
  9       0.014399112588
 10      -0.017529608965
 11       0.086112494044
 12      -0.037602059278
 13       0.045777084623
 14      -0.224875462696
 15      -0.087970996425
 16       0.107096680994
 17      -0.526101998269
 18      -0.061344462253
 19       0.074681299256
 20      -0.366864597381
 21       0.000000000003
 22       0.000000000003
 23      -0.000000000001
 24       0.000000000001
 25      -0.000000000002
 26       0.000000000001
 27       0.000000000007
 28      -0.000000000002
 29       0.000000000001
 30      -0.000000000005
 31       0.000000000001
 32       0.000000000000
 33      -0.000000000000
 34      -0.000000000000
 35      -0.000000000000
 36      -0.000000000000
 37      -0.000000000000
 Sym=     1a
 Ene= 2.25912192253869E-01
 Spin= Alpha
 Occup= 0.000000
  1       0.000000000003
  2       0.000000000002
  3      -0.000000000018
  4       0.000000000080
  5      -0.000000000083
  6       0.043570772957
  7       0.018104155458
  8       0.149562917443
  9       0.008705839824
 10       0.003617376206
 11       0.029884041846
 12      -0.009219732625
 13      -0.003830904543
 14      -0.031648052440
 15      -0.334661986118
 16      -0.139055890284
 17      -1.148775190471
 18       0.391783659110
 19       0.162790599997
 20       1.344853512654
 21       0.000000000013
 22       0.000000000004
 23      -0.000000000003
 24       0.000000000004
 25      -0.000000000002
 26       0.000000000041
 27       0.000000000013
 28      -0.000000000020
 29       0.000000000016
 30      -0.000000000006
 31       0.000000000001
 32       0.000000000000
 33      -0.000000000000
 34      -0.000000000000
 35      -0.000000000000
 36       0.000000000000
 37       0.000000000000
 Sym=     1a
 Ene= 2.25912192260427E-01
 Spin= Alpha
 Occup= 0.000000
  1      -0.000000000002
  2      -0.000000000001
  3       0.000000000014
  4      -0.000000000060
  5       0.000000000062
  6       0.150567740808
  7      -0.010520819486
  8      -0.042589984251
  9       0.030084814776
 10      -0.002102156169
 11      -0.008509869246
 12      -0.031860676729
 13       0.002226243321
 14       0.009012194184
 15      -1.156493120610
 16       0.080809177947
 17       0.327128663354
 18       1.353888775302
 19      -0.094602066373
 20      -0.382964513552
 21      -0.000000000003
 22       0.000000000021
 23      -0.000000000003
 24      -0.000000000003
 25       0.000000000007
 26      -0.000000000010
 27       0.000000000072
 28      -0.000000000009
 29      -0.000000000011
 30       0.000000000024
 31      -0.000000000000
 32       0.000000000000
 33       0.000000000000
 34       0.000000000000
 35      -0.000000000000
 36      -0.000000000000
 37       0.000000000000
 Sym=     1a
 Ene= 2.25912192272686E-01
 Spin= Alpha
 Occup= 0.000000
  1       0.000000000001
  2       0.000000000000
  3      -0.000000000005
  4       0.000000000019
  5      -0.000000000019
  6       0.005116849120
  7       0.155424550469
  8      -0.020304333107
  9       0.001022393358
 10       0.031055249860
 11      -0.004056991874
 12      -0.001082743722
 13      -0.032888395146
 14       0.004296470088
 15      -0.039301916696
 16      -1.193797704762
 17       0.155955196152
 18       0.046010151655
 19       1.397560680276
 20      -0.182574358404
 21      -0.000000000005
 22      -0.000000000003
 23       0.000000000014
 24       0.000000000003
 25      -0.000000000000
 26      -0.000000000021
 27      -0.000000000009
 28       0.000000000041
 29       0.000000000014
 30       0.000000000000
 31       0.000000000000
 32      -0.000000000000
 33       0.000000000000
 34       0.000000000000
 35       0.000000000000
 36      -0.000000000000
 37       0.000000000001
 Sym=     1a
 Ene= 2.49078788403685E-01
 Spin= Alpha
 Occup= 0.000000
  1       0.000000000069
  2       0.000000000050
  3      -0.000000000461
  4       0.000000001750
  5      -0.000000001568
  6       0.000000000002
  7      -0.000000000003
  8      -0.000000000009
  9       0.000000000000
 10      -0.000000000001
 11      -0.000000000002
 12       0.000000000000
 13       0.000000000003
 14       0.000000000001
 15      -0.000000000016
 16       0.000000000011
 17       0.000000000066
 18       0.000000000019
 19      -0.000000000007
 20      -0.000000000071
 21       0.161823622511
 22      -0.014348811320
 23       0.031410991198
 24       0.136467494450
 25      -0.022190836603
 26       0.645762299077
 27      -0.057259386753
 28       0.125346556813
 29       0.544577865688
 30      -0.088553237413
 31       0.000000000000
 32      -0.000000000000
 33       0.000000000000
 34      -0.000000000000
 35       0.000000000000
 36       0.000000000001
 37      -0.000000000001
 Sym=     1a
 Ene= 2.49078788404313E-01
 Spin= Alpha
 Occup= 0.000000
  1      -0.000000000017
  2      -0.000000000012
  3       0.000000000111
  4      -0.000000000423
  5       0.000000000380
  6      -0.000000000003
  7       0.000000000008
  8      -0.000000000005
  9      -0.000000000001
 10       0.000000000002
 11      -0.000000000001
 12       0.000000000001
 13      -0.000000000001
 14       0.000000000003
 15       0.000000000016
 16      -0.000000000063
 17       0.000000000037
 18      -0.000000000016
 19       0.000000000068
 20      -0.000000000044
 21       0.043902877699
 22      -0.018206962557
 23      -0.206496926704
 24       0.000050044258
 25       0.039941137024
 26       0.175195826168
 27      -0.072655461660
 28      -0.824032536632
 29       0.000199703198
 30       0.159386374328
 31       0.000000000000
 32      -0.000000000001
 33       0.000000000000
 34       0.000000000001
 35       0.000000000000
 36      -0.000000000001
 37      -0.000000000000
 Sym=     1a
 Ene= 2.49078788405046E-01
 Spin= Alpha
 Occup= 0.000000
  1       0.000000000010
  2       0.000000000007
  3      -0.000000000065
  4       0.000000000250
  5      -0.000000000226
  6      -0.000000000000
  7      -0.000000000004
  8       0.000000000004
  9       0.000000000000
 10      -0.000000000001
 11       0.000000000001
 12      -0.000000000001
 13       0.000000000004
 14      -0.000000000003
 15       0.000000000002
 16       0.000000000021
 17      -0.000000000025
 18      -0.000000000002
 19      -0.000000000018
 20       0.000000000024
 21      -0.027951242964
 22      -0.045573136034
 23       0.036562653140
 24       0.052282410767
 25       0.198913984009
 26      -0.111540321727
 27      -0.181861045046
 28       0.145904427221
 29       0.208634618689
 30       0.793772563252
 31      -0.000000000001
 32       0.000000000000
 33       0.000000000000
 34      -0.000000000000
 35      -0.000000000001
 36       0.000000000001
 37       0.000000000001
 Sym=     1a
 Ene= 2.49078788405612E-01
 Spin= Alpha
 Occup= 0.000000
  1       0.000000000013
  2       0.000000000010
  3      -0.000000000089
  4       0.000000000337
  5      -0.000000000298
  6       0.000000000000
  7      -0.000000000003
  8       0.000000000002
  9      -0.000000000001
 10      -0.000000000001
 11      -0.000000000000
 12       0.000000000003
 13       0.000000000002
 14       0.000000000002
 15      -0.000000000012
 16       0.000000000020
 17      -0.000000000016
 18       0.000000000021
 19      -0.000000000024
 20       0.000000000017
 21      -0.132628903041
 22      -0.009146693140
 23      -0.037952224425
 24       0.156135464142
 25      -0.054794994384
 26      -0.529259844897
 27      -0.036500169130
 28      -0.151449555509
 29       0.623063522651
 30      -0.218661163330
 31       0.000000000000
 32       0.000000000001
 33       0.000000000000
 34      -0.000000000000
 35       0.000000000000
 36       0.000000000001
 37      -0.000000000000
 Sym=     1a
 Ene= 2.49078788405849E-01
 Spin= Alpha
 Occup= 0.000000
  1      -0.000000000023
  2      -0.000000000017
  3       0.000000000154
  4      -0.000000000582
  5       0.000000000520
  6       0.000000000016
  7      -0.000000000003
  8       0.000000000000
  9       0.000000000004
 10      -0.000000000001
 11       0.000000000001
 12      -0.000000000005
 13       0.000000000001
 14      -0.000000000003
 15      -0.000000000113
 16       0.000000000020
 17       0.000000000006
 18       0.000000000121
 19      -0.000000000020
 20      -0.000000000011
 21      -0.003031245599
 22      -0.209277995094
 23       0.009508090000
 24      -0.027570285531
 25      -0.042874721293
 26      -0.012096281719
 27      -0.835130478257
 28       0.037942334762
 29      -0.110020099004
 30      -0.171092935412
 31      -0.000000000001
 32       0.000000000001
 33      -0.000000000001
 34       0.000000000001
 35       0.000000000000
 36      -0.000000000000
 37       0.000000000001
 Sym=     1a
 Ene= 2.72088560701283E-01
 Spin= Alpha
 Occup= 0.000000
  1       0.080444102271
  2       0.060294477716
  3      -0.540827965820
  4       2.068638877041
  5      -1.863864224212
  6       0.000000000008
  7      -0.000000000009
  8      -0.000000000009
  9       0.000000000001
 10       0.000000000007
 11      -0.000000000004
 12      -0.000000000003
 13      -0.000000000010
 14       0.000000000005
 15      -0.000000000036
 16       0.000000000040
 17       0.000000000064
 18       0.000000000018
 19      -0.000000000022
 20      -0.000000000062
 21      -0.000000000122
 22      -0.000000000047
 23      -0.000000000074
 24      -0.000000000165
 25       0.000000000001
 26      -0.000000000400
 27      -0.000000000169
 28      -0.000000000249
 29      -0.000000000608
 30      -0.000000000002
 31       0.000000000000
 32      -0.000000000000
 33      -0.000000000000
 34      -0.000000000000
 35       0.000000000000
 36       0.000000000000
 37       0.000000000000
 Sym=     1a
 Ene= 1.17788728548101E+00
 Spin= Alpha
 Occup= 0.000000
  1      -0.000000000001
  2      -0.000000000002
  3       0.000000000008
  4      -0.000000000036
  5       0.000000000036
  6       0.000000000000
  7       0.000000000000
  8       0.000000000000
  9       0.000000000002
 10       0.000000000002
 11      -0.000000000000
 12      -0.000000000007
 13      -0.000000000006
 14       0.000000000003
 15       0.000000000006
 16       0.000000000005
 17      -0.000000000007
 18      -0.000000000002
 19      -0.000000000002
 20       0.000000000003
 21      -1.077353362917
 22      -0.048473664713
 23      -0.106285534901
 24      -0.519445894791
 25       0.037277634147
 26       0.776866413395
 27       0.034953770366
 28       0.076641207181
 29       0.374566120207
 30      -0.026880448827
 31      -0.000000000007
 32      -0.000000000014
 33       0.000000000015
 34       0.000000000006
 35      -0.000000000006
 36       0.000000000003
 37      -0.000000000003
 Sym=     1a
 Ene= 1.17788728548308E+00
 Spin= Alpha
 Occup= 0.000000
  1      -0.000000000000
  2      -0.000000000001
  3       0.000000000001
  4      -0.000000000000
  5      -0.000000000005
  6      -0.000000000000
  7       0.000000000000
  8      -0.000000000001
  9      -0.000000000001
 10      -0.000000000002
 11      -0.000000000002
 12       0.000000000002
 13       0.000000000005
 14       0.000000000009
 15      -0.000000000002
 16      -0.000000000005
 17      -0.000000000011
 18       0.000000000001
 19       0.000000000002
 20       0.000000000005
 21      -0.525285108948
 22       0.019811549995
 23       0.039568309440
 24       1.080500235007
 25       0.013670667603
 26       0.378776706553
 27      -0.014285867867
 28      -0.028532226933
 29      -0.779135584607
 30      -0.009857752224
 31      -0.000000000002
 32      -0.000000000010
 33       0.000000000005
 34      -0.000000000013
 35      -0.000000000002
 36      -0.000000000008
 37       0.000000000006
 Sym=     1a
 Ene= 1.17788728550131E+00
 Spin= Alpha
 Occup= 0.000000
  1      -0.000000000000
  2      -0.000000000000
  3       0.000000000002
  4      -0.000000000010
  5       0.000000000010
  6      -0.000000000004
  7       0.000000000004
  8       0.000000000002
  9      -0.000000000006
 10       0.000000000006
 11      -0.000000000001
 12       0.000000000028
 13      -0.000000000030
 14      -0.000000000004
 15      -0.000000000025
 16       0.000000000026
 17       0.000000000003
 18       0.000000000010
 19      -0.000000000009
 20      -0.000000000000
 21       0.068517774214
 22       0.434304732144
 23      -1.059329455725
 24       0.059639768833
 25       0.355667198056
 26      -0.049407334064
 27      -0.313171862821
 28       0.763869593020
 29      -0.043005512309
 30      -0.256467292930
 31      -0.000000000001
 32      -0.000000000014
 33       0.000000000017
 34      -0.000000000002
 35      -0.000000000020
 36      -0.000000000005
 37      -0.000000000006
 Sym=     1a
 Ene= 1.17788728551037E+00
 Spin= Alpha
 Occup= 0.000000
  1      -0.000000000000
  2      -0.000000000000
  3       0.000000000001
  4      -0.000000000003
  5       0.000000000004
  6       0.000000000001
  7       0.000000000001
  8      -0.000000000001
  9       0.000000000000
 10       0.000000000001
 11      -0.000000000002
 12      -0.000000000004
 13      -0.000000000005
 14       0.000000000009
 15       0.000000000004
 16       0.000000000004
 17      -0.000000000009
 18      -0.000000000002
 19      -0.000000000002
 20       0.000000000004
 21      -0.010865557443
 22      -0.028559202248
 23      -0.392405906658
 24       0.023981830766
 25      -1.135807654119
 26       0.007835021388
 27       0.020593693568
 28       0.282959129095
 29      -0.017293006636
 30       0.819017092191
 31       0.000000000001
 32      -0.000000000001
 33       0.000000000006
 34      -0.000000000002
 35       0.000000000012
 36       0.000000000005
 37       0.000000000009
 Sym=     1a
 Ene= 1.17788728551336E+00
 Spin= Alpha
 Occup= 0.000000
  1       0.000000000000
  2       0.000000000000
  3      -0.000000000002
  4       0.000000000009
  5      -0.000000000009
  6      -0.000000000005
  7      -0.000000000000
  8      -0.000000000001
  9      -0.000000000007
 10       0.000000000000
 11      -0.000000000003
 12       0.000000000034
 13      -0.000000000001
 14       0.000000000011
 15      -0.000000000029
 16       0.000000000002
 17      -0.000000000011
 18       0.000000000011
 19      -0.000000000001
 20       0.000000000004
 21      -0.064208872582
 22       1.119540895740
 23       0.395634530754
 24      -0.064135899557
 25      -0.165576409021
 26       0.046300237477
 27      -0.807287330467
 28      -0.285287250683
 29       0.046247617517
 30       0.119395135752
 31      -0.000000000002
 32      -0.000000000016
 33       0.000000000003
 34       0.000000000008
 35      -0.000000000005
 36       0.000000000003
 37      -0.000000000001
 Sym=     1a
 Ene= 1.30082013505488E+00
 Spin= Alpha
 Occup= 0.000000
  1       0.000000000000
  2       0.000000000000
  3      -0.000000000000
  4       0.000000000001
  5       0.000000000000
  6      -0.000000000002
  7      -0.000000000005
  8       0.000000000002
  9      -0.000000000001
 10      -0.000000000004
 11       0.000000000002
 12       0.000000000010
 13       0.000000000029
 14      -0.000000000013
 15      -0.000000000010
 16      -0.000000000031
 17       0.000000000015
 18       0.000000000004
 19       0.000000000012
 20      -0.000000000005
 21       0.000000000008
 22      -0.000000000014
 23       0.000000000020
 24       0.000000000002
 25      -0.000000000021
 26      -0.000000000006
 27       0.000000000009
 28      -0.000000000015
 29      -0.000000000001
 30       0.000000000015
 31       0.232159961824
 32       0.119022809939
 33       0.427177975854
 34       0.074748607437
 35      -0.746476678696
 36      -0.242863277341
 37      -0.357291116813
 Sym=     1a
 Ene= 1.30082013505494E+00
 Spin= Alpha
 Occup= 0.000000
  1       0.000000000000
  2       0.000000000000
  3      -0.000000000000
  4      -0.000000000000
  5       0.000000000000
  6       0.000000000001
  7      -0.000000000000
  8       0.000000000001
  9       0.000000000001
 10       0.000000000000
 11       0.000000000001
 12      -0.000000000004
 13       0.000000000000
 14      -0.000000000008
 15       0.000000000003
 16      -0.000000000001
 17       0.000000000008
 18      -0.000000000001
 19       0.000000000000
 20      -0.000000000003
 21       0.000000000004
 22      -0.000000000016
 23      -0.000000000001
 24       0.000000000013
 25      -0.000000000001
 26      -0.000000000004
 27       0.000000000011
 28       0.000000000001
 29      -0.000000000010
 30       0.000000000001
 31       0.277662832441
 32      -0.495079038219
 33      -0.225736550087
 34       0.445693038974
 35      -0.208229930182
 36       0.604966187740
 37      -0.137320902381
 Sym=     1a
 Ene= 1.30082013505546E+00
 Spin= Alpha
 Occup= 0.000000
  1      -0.000000000000
  2       0.000000000000
  3       0.000000000000
  4       0.000000000000
  5      -0.000000000000
  6       0.000000000000
  7      -0.000000000004
  8      -0.000000000000
  9       0.000000000000
 10      -0.000000000006
 11      -0.000000000001
 12      -0.000000000000
 13       0.000000000030
 14       0.000000000003
 15      -0.000000000000
 16      -0.000000000030
 17      -0.000000000004
 18       0.000000000000
 19       0.000000000012
 20       0.000000000002
 21       0.000000000006
 22      -0.000000000001
 23       0.000000000003
 24       0.000000000009
 25       0.000000000004
 26      -0.000000000005
 27       0.000000000000
 28      -0.000000000001
 29      -0.000000000007
 30      -0.000000000002
 31      -0.050986804536
 32      -0.032456357936
 33       0.490910704388
 34       0.130040781184
 35       0.545088642270
 36       0.123677101715
 37      -0.652706176406
 Sym=     1a
 Ene= 1.30082013505549E+00
 Spin= Alpha
 Occup= 0.000000
  1       0.000000000000
  2       0.000000000000
  3      -0.000000000000
  4       0.000000000000
  5       0.000000000000
  6       0.000000000001
  7      -0.000000000002
  8       0.000000000000
  9       0.000000000001
 10      -0.000000000002
 11      -0.000000000000
 12      -0.000000000007
 13       0.000000000011
 14      -0.000000000000
 15       0.000000000007
 16      -0.000000000012
 17      -0.000000000000
 18      -0.000000000003
 19       0.000000000005
 20      -0.000000000000
 21       0.000000000012
 22      -0.000000000007
 23       0.000000000011
 24      -0.000000000006
 25      -0.000000000004
 26      -0.000000000008
 27       0.000000000004
 28      -0.000000000009
 29       0.000000000003
 30       0.000000000002
 31      -0.425652569672
 32      -0.218812850568
 33       0.123141538398
 34      -0.686542249024
 35      -0.252778456190
 36       0.452569911750
 37      -0.125380442050
 Sym=     1a
 Ene= 1.30082013505586E+00
 Spin= Alpha
 Occup= 0.000000
  1       0.000000000000
  2       0.000000000000
  3      -0.000000000000
  4       0.000000000000
  5       0.000000000000
  6      -0.000000000001
  7      -0.000000000001
  8      -0.000000000001
  9      -0.000000000001
 10      -0.000000000001
 11      -0.000000000001
 12       0.000000000004
 13       0.000000000007
 14       0.000000000004
 15      -0.000000000004
 16      -0.000000000008
 17      -0.000000000004
 18       0.000000000002
 19       0.000000000004
 20       0.000000000001
 21      -0.000000000010
 22       0.000000000003
 23      -0.000000000009
 24      -0.000000000001
 25      -0.000000000011
 26       0.000000000007
 27      -0.000000000002
 28       0.000000000007
 29       0.000000000001
 30       0.000000000009
 31      -0.101982369245
 32      -0.056240333308
 33      -0.687667757791
 34      -0.123988371612
 35      -0.041969212389
 36      -0.321251504039
 37      -0.627066676069
 Sym=     1a
 Ene= 1.30082013505639E+00
 Spin= Alpha
 Occup= 0.000000
  1      -0.000000000000
  2      -0.000000000000
  3       0.000000000001
  4      -0.000000000002
  5       0.000000000000
  6      -0.000000000001
  7       0.000000000000
  8       0.000000000003
  9      -0.000000000001
 10       0.000000000000
 11       0.000000000005
 12       0.000000000005
 13      -0.000000000002
 14      -0.000000000026
 15      -0.000000000006
 16       0.000000000002
 17       0.000000000029
 18       0.000000000002
 19      -0.000000000001
 20      -0.000000000011
 21      -0.000000000006
 22       0.000000000005
 23       0.000000000001