[Molden Format]
[Title]
 Molden file created by orca_2mkl for BaseName=orca_atom

[Atoms] AU
N    1   7          0.0000000000         0.0000000000         0.0000000000 
[GTO]
  1 0
s   6 1.0 
    19730.8006470000         0.6956035199
     2957.8958745000         1.2986099328
      673.2213359500         2.2190880635
      190.6824949400         3.4636607549
       62.2954418980         4.6967555531
       22.6541611820         4.9522510945
s   2 1.0 
        8.9791477428         2.3880677979
        3.6863002370         0.7337878750
s   1 1.0 
        0.8466007680         0.6290267082
s   1 1.0 
        0.3364713377         0.3148626514
s   1 1.0 
        0.1364765367         0.1600308040
p   4 1.0 
       49.2003805100         2.1264813968
       11.3467905370         2.3279367185
        3.4273972411         2.0485729192
        1.1785525134         1.2607319854
p   1 1.0 
        0.4164220497         0.4768230427
p   1 1.0 
        0.1426082601         0.1249168256
d   1 1.0 
        1.6540000000         6.8771297418
d   1 1.0 
        0.4690000000         0.7577440909
f   1 1.0 
        1.0930000000         6.9645882147

[5D]
[7F]
[9G]
[MO]
 Sym=     1a
 Ene= -1.44314590518725E+01
 Spin= Alpha
 Occup= 1.000000
  1       0.447366218485
  2       0.627630888036
  3       0.034017770020
  4      -0.018114437302
  5       0.006091389130
  6       0.000000000000
  7       0.000000000000
  8      -0.000000000000
  9      -0.000000000000
 10      -0.000000000000
 11       0.000000000000
 12      -0.000000000000
 13       0.000000000000
 14      -0.000000000000
 15       0.000000000000
 16       0.000000000000
 17      -0.000000000000
 18       0.000000000000
 19       0.000000000000
 20      -0.000000000000
 21      -0.000000000000
 22       0.000000000000
 23      -0.000000000000
 24      -0.000000000000
 25       0.000000000000
 26       0.000000000000
 27      -0.000000000000
 28      -0.000000000000
 29      -0.000000000000
 30      -0.000000000000
 31      -0.000000000000
 Sym=     1a
 Ene= -8.08596099677064E-01
 Spin= Alpha
 Occup= 1.000000
  1      -0.114218242873
  2      -0.260709023257
  3       0.427772790191
  4       0.525565718633
  5       0.180868513160
  6      -0.000000000000
  7       0.000000000002
  8      -0.000000000002
  9      -0.000000000001
 10       0.000000000002
 11      -0.000000000002
 12       0.000000000001
 13      -0.000000000000
 14      -0.000000000000
 15      -0.000000000001
 16       0.000000000000
 17      -0.000000000000
 18       0.000000000000
 19       0.000000000000
 20       0.000000000007
 21      -0.000000000001
 22       0.000000000000
 23      -0.000000000002
 24      -0.000000000000
 25       0.000000000000
 26      -0.000000000000
 27      -0.000000000000
 28      -0.000000000000
 29      -0.000000000000
 30       0.000000000000
 31      -0.000000000000
 Sym=     1a
 Ene= -3.54531354701816E-01
 Spin= Alpha
 Occup= 1.000000
  1      -0.000000000000
  2       0.000000000000
  3      -0.000000000002
  4       0.000000000005
  5      -0.000000000005
  6      -0.501234330339
  7       0.005333154370
  8      -0.003520890335
  9      -0.422666448019
 10       0.004497188796
 11      -0.002968994982
 12      -0.272919858774
 13       0.002903878784
 14      -0.001917109094
 15       0.000000000000
 16       0.000000000000
 17      -0.000000000000
 18       0.000000000000
 19      -0.000000000000
 20      -0.000000000000
 21       0.000000000001
 22      -0.000000000000
 23       0.000000000000
 24      -0.000000000001
 25       0.000000000000
 26      -0.000000000000
 27       0.000000000000
 28      -0.000000000000
 29       0.000000000000
 30      -0.000000000000
 31       0.000000000000
 Sym=     1a
 Ene= -3.54531354700548E-01
 Spin= Alpha
 Occup= 1.000000
  1       0.000000000000
  2       0.000000000000
  3      -0.000000000001
  4       0.000000000003
  5      -0.000000000007
  6       0.006198789232
  7       0.472895274531
  8      -0.166157538053
  9       0.005227136428
 10       0.398769505342
 11      -0.140112542516
 12       0.003375213108
 13       0.257489369206
 14      -0.090472038875
 15       0.000000000000
 16       0.000000000000
 17      -0.000000000000
 18      -0.000000000000
 19      -0.000000000000
 20      -0.000000000000
 21       0.000000000000
 22      -0.000000000001
 23      -0.000000000000
 24      -0.000000000000
 25      -0.000000000000
 26       0.000000000000
 27       0.000000000000
 28       0.000000000000
 29      -0.000000000000
 30       0.000000000000
 31      -0.000000000000
 Sym=     1a
 Ene= -3.54531354699783E-01
 Spin= Alpha
 Occup= 1.000000
  1      -0.000000000000
  2      -0.000000000000
  3       0.000000000001
  4      -0.000000000004
  5       0.000000000006
  6      -0.001553774867
  7       0.166187574457
  8       0.472922793902
  9      -0.001310222514
 10       0.140137870749
 11       0.398792711085
 12      -0.000846023490
 13       0.090488393567
 14       0.257504353382
 15      -0.000000000000
 16      -0.000000000000
 17       0.000000000000
 18      -0.000000000000
 19      -0.000000000000
 20      -0.000000000001
 21      -0.000000000000
 22       0.000000000000
 23      -0.000000000000
 24      -0.000000000000
 25       0.000000000000
 26      -0.000000000000
 27       0.000000000000
 28      -0.000000000000
 29      -0.000000000000
 30      -0.000000000000
 31      -0.000000000000
 Sym=     1a
 Ene= 2.16777680908656E-01
 Spin= Alpha
 Occup= 0.000000
  1       0.057326141852
  2       0.117533710143
  3       0.032862183878
  4      -1.788607136197
  5       2.024954506404
  6       0.000000000000
  7      -0.000000000002
  8       0.000000000001
  9       0.000000000001
 10      -0.000000000006
 11       0.000000000004
 12      -0.000000000004
 13       0.000000000013
 14      -0.000000000011
 15      -0.000000000016
 16       0.000000000003
 17      -0.000000000002
 18       0.000000000004
 19       0.000000000002
 20       0.000000000174
 21      -0.000000000015
 22       0.000000000010
 23      -0.000000000064
 24      -0.000000000003
 25      -0.000000000000
 26       0.000000000000
 27       0.000000000000
 28       0.000000000000
 29       0.000000000000
 30      -0.000000000000
 31       0.000000000000
 Sym=     1a
 Ene= 3.16799291574227E-01
 Spin= Alpha
 Occup= 0.000000
  1      -0.000000000000
  2      -0.000000000000
  3       0.000000000001
  4       0.000000000001
  5      -0.000000000001
  6      -0.012025254697
  7      -0.209392950206
  8      -0.213953741196
  9      -0.027531076901
 10      -0.479392209131
 11      -0.489833858031
 12       0.050920332423
 13       0.886663850349
 14       0.905976288978
 15       0.000000000000
 16       0.000000000000
 17       0.000000000000
 18       0.000000000000
 19      -0.000000000000
 20       0.000000000000
 21       0.000000000000
 22       0.000000000000
 23       0.000000000000
 24       0.000000000000
 25       0.000000000000
 26       0.000000000000
 27      -0.000000000000
 28      -0.000000000000
 29       0.000000000000
 30       0.000000000000
 31       0.000000000000
 Sym=     1a
 Ene= 3.16799291574459E-01
 Spin= Alpha
 Occup= 0.000000
  1       0.000000000001
  2       0.000000000002
  3      -0.000000000002
  4      -0.000000000021
  5       0.000000000024
  6      -0.012626661617
  7       0.214290494460
  8      -0.209012844385
  9      -0.028907960850
 10       0.490604833803
 11      -0.478521980363
 12       0.053466959589
 13      -0.907402253636
 14       0.885054311491
 15       0.000000000000
 16       0.000000000000
 17      -0.000000000000
 18      -0.000000000000
 19       0.000000000000
 20       0.000000000000
 21       0.000000000000
 22      -0.000000000000
 23      -0.000000000000
 24      -0.000000000000
 25       0.000000000000
 26      -0.000000000000
 27       0.000000000000
 28      -0.000000000000
 29      -0.000000000000
 30      -0.000000000000
 31      -0.000000000000
 Sym=     1a
 Ene= 3.16799291574569E-01
 Spin= Alpha
 Occup= 0.000000
  1      -0.000000000000
  2      -0.000000000000
  3      -0.000000000002
  4       0.000000000008
  5      -0.000000000007
  6       0.299102287492
  7       0.000627778560
  8      -0.017425419026
  9       0.684776188577
 10       0.001437260187
 11      -0.039894419146
 12      -1.266533498941
 13      -0.002658296541
 14       0.073787054971
 15      -0.000000000000
 16       0.000000000000
 17       0.000000000000
 18      -0.000000000000
 19      -0.000000000000
 20       0.000000000000
 21      -0.000000000000
 22      -0.000000000000
 23      -0.000000000000
 24       0.000000000000
 25      -0.000000000000
 26       0.000000000000
 27      -0.000000000000
 28       0.000000000000
 29      -0.000000000000
 30       0.000000000000
 31      -0.000000000000
 Sym=     1a
 Ene= 9.84518721495159E-01
 Spin= Alpha
 Occup= 0.000000
  1       0.000000000022
  2       0.000000000068
  3      -0.000000000330
  4       0.000000000188
  5       0.000000000113
  6       0.000000000000
  7      -0.000000000001
  8      -0.000000000001
  9      -0.000000000000
 10       0.000000000000
 11       0.000000000000
 12      -0.000000000000
 13      -0.000000000000
 14      -0.000000000000
 15       0.002266294363
 16      -0.000085505230
 17       0.000219995077
 18       0.000490746110
 19       0.000015464147
 20      -0.973480350595
 21       0.036728530515
 22      -0.094498264709
 23      -0.210798606980
 24      -0.006642580541
 25       0.000000000000
 26       0.000000000000
 27      -0.000000000000
 28       0.000000000000
 29       0.000000000000
 30      -0.000000000000
 31      -0.000000000000
 Sym=     1a
 Ene= 9.84518721495409E-01
 Spin= Alpha
 Occup= 0.000000
  1       0.000000000000
  2       0.000000000001
  3      -0.000000000005
  4       0.000000000002
  5       0.000000000003
  6      -0.000000000000
  7      -0.000000000001
  8       0.000000000001
  9       0.000000000000
 10       0.000000000000
 11      -0.000000000000
 12      -0.000000000000
 13      -0.000000000000
 14       0.000000000000
 15      -0.000175487870
 16      -0.000035754066
 17       0.002310740105
 18      -0.000228706659
 19      -0.000094705152
 20       0.075380319481
 21       0.015358058027
 22      -0.992571895696
 23       0.098240300211
 24       0.040680331048
 25       0.000000000000
 26      -0.000000000000
 27       0.000000000000
 28       0.000000000000
 29       0.000000000000
 30       0.000000000000
 31      -0.000000000000
 Sym=     1a
 Ene= 9.84518721495860E-01
 Spin= Alpha
 Occup= 0.000000
  1      -0.000000000000
  2      -0.000000000001
  3       0.000000000004
  4      -0.000000000002
  5      -0.000000000002
  6       0.000000000001
  7       0.000000000000
  8       0.000000000000
  9      -0.000000000000
 10      -0.000000000000
 11      -0.000000000000
 12       0.000000000000
 13      -0.000000000000
 14      -0.000000000000
 15      -0.000127598260
 16      -0.002292877041
 17      -0.000037336075
 18       0.000216984139
 19      -0.000332907559
 20       0.054809472730
 21       0.984898866687
 22       0.016037605859
 23      -0.093204924696
 24       0.142999503027
 25       0.000000000000
 26      -0.000000000000
 27       0.000000000000
 28      -0.000000000000
 29       0.000000000000
 30       0.000000000000
 31       0.000000000000
 Sym=     1a
 Ene= 9.84518721496205E-01
 Spin= Alpha
 Occup= 0.000000
  1      -0.000000000014
  2      -0.000000000042
  3       0.000000000205
  4      -0.000000000112
  5      -0.000000000075
  6      -0.000000000001
  7      -0.000000000001
  8       0.000000000000
  9       0.000000000000
 10       0.000000000000
 11      -0.000000000000
 12      -0.000000000000
 13      -0.000000000000
 14       0.000000000000
 15      -0.000495982297
 16       0.000251361866
 17       0.000185513008
 18       0.002254032533
 19      -0.000092795716
 20       0.213047796453
 21      -0.107971780617
 22      -0.079686589390
 23      -0.968213315573
 24       0.039860137965
 25      -0.000000000000
 26      -0.000000000000
 27       0.000000000000
 28       0.000000000000
 29      -0.000000000000
 30      -0.000000000000
 31       0.000000000000
 Sym=     1a
 Ene= 9.84518721496290E-01
 Spin= Alpha
 Occup= 0.000000
  1      -0.000000000001
  2      -0.000000000003
  3       0.000000000016
  4      -0.000000000009
  5      -0.000000000006
  6       0.000000000001
  7      -0.000000000001
  8       0.000000000000
  9      -0.000000000000
 10       0.000000000000
 11      -0.000000000000
 12       0.000000000000
 13       0.000000000000
 14       0.000000000000
 15      -0.000060861440
 16      -0.000322199584
 17       0.000095620368
 18       0.000109484023
 19       0.002303089944
 20       0.026142859990
 21       0.138399922855
 22      -0.041073459409
 23      -0.047028553373
 24      -0.989285790296
 25       0.000000000000
 26       0.000000000000
 27      -0.000000000000
 28       0.000000000000
 29       0.000000000000
 30      -0.000000000000
 31      -0.000000000000
 Sym=     1a
 Ene= 1.77811874451051E+00
 Spin= Alpha
 Occup= 0.000000
  1      -0.132229211012
  2      -0.428324960006
  3       2.864626727606
  4      -3.848672872560
  5       1.622365226594
  6      -0.000000000008
  7       0.000000000012
  8      -0.000000000010
  9       0.000000000011
 10      -0.000000000016
 11       0.000000000014
 12      -0.000000000006
 13       0.000000000007
 14      -0.000000000006
 15      -0.000000000022
 16       0.000000000004
 17      -0.000000000003
 18       0.000000000006
 19       0.000000000002
 20      -0.000000000118
 21       0.000000000008
 22      -0.000000000005
 23       0.000000000043
 24       0.000000000001
 25      -0.000000000000
 26      -0.000000000000
 27       0.000000000000
 28       0.000000000000
 29       0.000000000000
 30       0.000000000000
 31       0.000000000000
 Sym=     1a
 Ene= 1.93001728064517E+00
 Spin= Alpha
 Occup= 0.000000
  1       0.000000000001
  2       0.000000000003
  3      -0.000000000021
  4       0.000000000029
  5      -0.000000000012
  6      -0.005387062328
  7       1.195812321246
  8       0.283369477153
  9       0.007397537159
 10      -1.642094622856
 11      -0.389124184830
 12      -0.003410489771
 13       0.757055597519
 14       0.179398092019
 15      -0.000000000000
 16       0.000000000000
 17      -0.000000000000
 18      -0.000000000000
 19      -0.000000000000
 20      -0.000000000000
 21      -0.000000000000
 22      -0.000000000000
 23      -0.000000000000
 24      -0.000000000000
 25      -0.000000000000
 26      -0.000000000000
 27       0.000000000000
 28       0.000000000000
 29       0.000000000000
 30      -0.000000000000
 31      -0.000000000001
 Sym=     1a
 Ene= 1.93001728064563E+00
 Spin= Alpha
 Occup= 0.000000
  1       0.000000000001
  2       0.000000000003
  3      -0.000000000018
  4       0.000000000024
  5      -0.000000000010
  6      -1.228775840831
  7      -0.009708292303
  8       0.017608824926
  9       1.687360269732
 10       0.013331468747
 11      -0.024180514126
 12      -0.777924438368
 13      -0.006146212829
 14       0.011147952935
 15      -0.000000000000
 16       0.000000000000
 17       0.000000000000
 18      -0.000000000000
 19      -0.000000000000
 20      -0.000000000000
 21       0.000000000000
 22      -0.000000000000
 23       0.000000000000
 24      -0.000000000000
 25       0.000000000000
 26      -0.000000000001
 27       0.000000000000
 28      -0.000000000000
 29       0.000000000000
 30      -0.000000000001
 31       0.000000000000
 Sym=     1a
 Ene= 1.93001728064578E+00
 Spin= Alpha
 Occup= 0.000000
  1      -0.000000000001
  2      -0.000000000004
  3       0.000000000029
  4      -0.000000000039
  5       0.000000000017
  6       0.019372692487
  7      -0.283254355806
  8       1.195694801096
  9      -0.026602664647
 10       0.388966099702
 11      -1.641933243681
 12       0.012264638042
 13      -0.179325209964
 14       0.756981196807
 15      -0.000000000000
 16       0.000000000001
 17       0.000000000000
 18      -0.000000000000
 19       0.000000000000
 20      -0.000000000000
 21      -0.000000000000
 22       0.000000000000
 23       0.000000000000
 24       0.000000000000
 25      -0.000000000001
 26       0.000000000000
 27      -0.000000000000
 28       0.000000000000
 29       0.000000000000
 30      -0.000000000000
 31       0.000000000000
 Sym=     1a
 Ene= 3.80287549873405E+00
 Spin= Alpha
 Occup= 0.000000
  1      -0.000000000000
  2      -0.000000000000
  3       0.000000000000
  4       0.000000000000
  5       0.000000000000
  6      -0.000000000000
  7      -0.000000000000
  8      -0.000000000001
  9       0.000000000000
 10       0.000000000000
 11       0.000000000001
 12      -0.000000000000
 13      -0.000000000000
 14      -0.000000000001
 15       0.000000000001
 16      -0.000000000000
 17       0.000000000000
 18       0.000000000000
 19      -0.000000000000
 20      -0.000000000000
 21       0.000000000000
 22      -0.000000000000
 23      -0.000000000000
 24       0.000000000000
 25      -0.963375492457
 26       0.061614222490
 27       0.005635499774
 28      -0.260408284057
 29      -0.013745567622
 30      -0.008579495526
 31      -0.002136933583
 Sym=     1a
 Ene= 3.80287549873411E+00
 Spin= Alpha
 Occup= 0.000000
  1      -0.000000000000
  2      -0.000000000000
  3       0.000000000000
  4      -0.000000000000
  5       0.000000000000
  6      -0.000000000000
  7       0.000000000001
  8      -0.000000000000
  9       0.000000000000
 10      -0.000000000001
 11       0.000000000000
 12      -0.000000000000
 13       0.000000000000
 14      -0.000000000000
 15      -0.000000000000
 16       0.000000000000
 17       0.000000000001
 18      -0.000000000000
 19      -0.000000000000
 20       0.000000000000
 21      -0.000000000000
 22      -0.000000000000
 23       0.000000000000
 24       0.000000000000
 25      -0.008150550133
 26       0.021693687334
 27      -0.992555028794
 28       0.009987340914
 29       0.057304261680
 30      -0.001927465414
 31       0.104452030948
 Sym=     1a
 Ene= 3.80287549873430E+00
 Spin= Alpha
 Occup= 0.000000
  1       0.000000000000
  2       0.000000000000
  3      -0.000000000000
  4       0.000000000000
  5      -0.000000000000
  6       0.000000000001
  7      -0.000000000000
  8      -0.000000000000
  9      -0.000000000001
 10       0.000000000000
 11       0.000000000000
 12       0.000000000000
 13      -0.000000000000
 14      -0.000000000000
 15       0.000000000000
 16       0.000000000001
 17       0.000000000000
 18      -0.000000000000
 19       0.000000000000
 20      -0.000000000000
 21      -0.000000000000
 22      -0.000000000000
 23       0.000000000000
 24      -0.000000000000
 25      -0.081162495993
 26      -0.992393234843
 27      -0.021218589625
 28       0.064871164660
 29      -0.032144643192
 30       0.052585441258
 31       0.010550517186
 Sym=     1a
 Ene= 3.80287549873453E+00
 Spin= Alpha
 Occup= 0.000000
  1       0.000000000000
  2       0.000000000000
  3      -0.000000000000
  4       0.000000000000
  5      -0.000000000000
  6       0.000000000000
  7       0.000000000000
  8       0.000000000000
  9      -0.000000000000
 10      -0.000000000000
 11      -0.000000000000
 12       0.000000000000
 13       0.000000000000
 14       0.000000000000
 15       0.000000000000
 16       0.000000000000
 17      -0.000000000000
 18       0.000000000000
 19      -0.000000000001
 20      -0.000000000000
 21      -0.000000000000
 22       0.000000000000
 23      -0.000000000000
 24       0.000000000000
 25       0.005751262590
 26      -0.037594331006
 27       0.062081602724
 28      -0.082342811888
 29       0.991788615493
 30       0.019789664382
 31       0.062312410884
 Sym=     1a
 Ene= 3.80287549873454E+00
 Spin= Alpha
 Occup= 0.000000
  1      -0.000000000000
  2      -0.000000000000
  3      -0.000000000000
  4       0.000000000000
  5      -0.000000000000
  6      -0.000000000000
  7      -0.000000000000
  8      -0.000000000000
  9       0.000000000000
 10       0.000000000000
 11       0.000000000000
 12      -0.000000000000
 13      -0.000000000000
 14      -0.000000000000
 15       0.000000000000
 16      -0.000000000000
 17      -0.000000000000
 18      -0.000000000000
 19      -0.000000000000
 20      -0.000000000000
 21       0.000000000000
 22       0.000000000000
 23       0.000000000000
 24       0.000000000000
 25      -0.254928694598
 26       0.084026044025
 27       0.016455649512
 28       0.956724986807
 29       0.082652649979
 30       0.072492121292
 31      -0.016459878972
 Sym=     1a
 Ene= 3.80287549873492E+00
 Spin= Alpha
 Occup= 0.000000
  1       0.000000000000
  2       0.000000000000
  3      -0.000000000000
  4       0.000000000000
  5      -0.000000000000
  6      -0.000000000001
  7      -0.000000000000
  8       0.000000000000
  9       0.000000000001
 10       0.000000000000
 11      -0.000000000000
 12      -0.000000000001
 13      -0.000000000000
 14       0.000000000000
 15      -0.000000000000
 16       0.000000000000
 17       0.000000000000
 18       0.000000000000
 19       0.000000000000
 20       0.000000000000
 21      -0.000000000000
 22      -0.000000000000
 23      -0.000000000000
 24      -0.000000000000
 25       0.014683121417
 26       0.046802077289
 27      -0.009195116533
 28      -0.074647903590
 29      -0.020029302016
 30       0.993980733638
 31      -0.059483107229
 Sym=     1a
 Ene= 3.80287549873493E+00
 Spin= Alpha
 Occup= 0.000000
  1      -0.000000000000
  2       0.000000000000
  3       0.000000000000
  4      -0.000000000000
  5       0.000000000000
  6      -0.000000000000
  7      -0.000000000001
  8      -0.000000000000
  9       0.000000000000
 10       0.000000000001
 11       0.000000000000
 12      -0.000000000000
 13      -0.000000000000
 14      -0.000000000000
 15      -0.000000000000
 16       0.000000000000
 17       0.000000000000
 18       0.000000000000
 19      -0.000000000000
 20       0.000000000000
 21      -0.000000000000
 22      -0.000000000000
 23      -0.000000000000
 24       0.000000000000
 25       0.004070369195
 26      -0.014986484480
 27      -0.100712776974
 28      -0.014288528616
 29       0.067946387457
 30      -0.059270660465
 31      -0.990596733854
 Sym=     1a
 Ene= 4.31982590594186E+00
 Spin= Alpha
 Occup= 0.000000
  1      -0.000000000001
  2      -0.000000000003
  3       0.000000000029
  4      -0.000000000051
  5       0.000000000031
  6      -0.000000000000
  7      -0.000000000000
  8      -0.000000000000
  9       0.000000000000
 10      -0.000000000000
 11       0.000000000000
 12       0.000000000000
 13       0.000000000000
 14      -0.000000000000
 15       0.317105423533
 16       0.053057174245
 17       0.006664840408
 18      -1.124882822033
 19       0.049552527750
 20      -0.164456927989
 21      -0.027516463726
 22      -0.003456513505
 23       0.583385711913
 24      -0.025698887130
 25       0.000000000000
 26       0.000000000000
 27      -0.000000000000
 28      -0.000000000000
 29       0.000000000000
 30       0.000000000000
 31      -0.000000000000
 Sym=     1a
 Ene= 4.31982590594668E+00
 Spin= Alpha
 Occup= 0.000000
  1      -0.000000000002
  2      -0.000000000005
  3       0.000000000048
  4      -0.000000000085
  5       0.000000000051
  6      -0.000000000000
  7       0.000000000000
  8       0.000000000000
  9       0.000000000001
 10      -0.000000000000
 11      -0.000000000000
 12      -0.000000000000
 13       0.000000000000
 14       0.000000000000
 15       1.125465897817
 16       0.007832978884
 17       0.046230802971
 18       0.318994478980
 19       0.024546737268
 20      -0.583688106150
 21      -0.004062332425
 22      -0.023976177229
 23      -0.165436628217
 24      -0.012730406684
 25       0.000000000001
 26       0.000000000000
 27      -0.000000000000
 28       0.000000000000
 29       0.000000000000
 30      -0.000000000000
 31       0.000000000000
 Sym=     1a
 Ene= 4.31982590596260E+00
 Spin= Alpha
 Occup= 0.000000
  1      -0.000000000000
  2      -0.000000000000
  3       0.000000000004
  4      -0.000000000008
  5       0.000000000005
  6      -0.000000000001
  7       0.000000000000
  8       0.000000000000
  9       0.000000000001
 10      -0.000000000000
 11      -0.000000000001
 12      -0.000000000000
 13       0.000000000000
 14       0.000000000000
 15      -0.004391104708
 16      -0.932692521937
 17      -0.013355297257
 18      -0.014131563578
 19       0.707756640696
 20       0.002277310753
 21       0.483712152282
 22       0.006926312186
 23       0.007328898724
 24      -0.367056108965
 25       0.000000000000
 26      -0.000000000000
 27      -0.000000000000
 28      -0.000000000000
 29       0.000000000001
 30      -0.000000000000
 31      -0.000000000000
 Sym=     1a
 Ene= 4.31982590596278E+00
 Spin= Alpha
 Occup= 0.000000
  1       0.000000000001
  2       0.000000000001
  3      -0.000000000013
  4       0.000000000023
  5      -0.000000000014
  6      -0.000000000000
  7       0.000000000000
  8      -0.000000000000
  9       0.000000000000
 10      -0.000000000000
 11       0.000000000000
 12      -0.000000000000
 13       0.000000000000
 14      -0.000000000000
 15      -0.040770999728
 16       0.705720050547
 17      -0.051773057557
 18       0.062455284117
 19       0.930025791909
 20       0.021144619009
 21      -0.365999894423
 22       0.026850496291
 23      -0.032390502970
 24      -0.482329135166
 25      -0.000000000000
 26       0.000000000000
 27      -0.000000000000
 28       0.000000000000
 29       0.000000000000
 30      -0.000000000000
 31      -0.000000000000
 Sym=     1a
 Ene= 4.31982590596335E+00
 Spin= Alpha
 Occup= 0.000000
  1       0.000000000000
  2       0.000000000000
  3      -0.000000000004
  4       0.000000000007
  5      -0.000000000004
  6      -0.000000000000
  7      -0.000000000000
  8       0.000000000000
  9       0.000000000000
 10      -0.000000000000
 11      -0.000000000000
 12      -0.000000000000
 13       0.000000000000
 14      -0.000000000000
 15       0.048179422770
 16      -0.019990004077
 17      -1.168842003475
 18       0.003597951323
 19      -0.048028308313
 20      -0.024986768668
 21       0.010367197837
 22       0.606183782844
 23      -0.001865966261
 24       0.024908397825
 25      -0.000000000000
 26      -0.000000000000
 27      -0.000000000001
 28      -0.000000000000
 29      -0.000000000000
 30       0.000000000000
 31       0.000000000000
 Sym=     1a
 Ene= 3.09231992057691E+01
 Spin= Alpha
 Occup= 0.000000
  1      -1.381793334228
  2       1.663555918464
  3      -1.316645319666
  4       1.117709088806
  5      -0.402430702884
  6      -0.000000000000
  7       0.000000000000
  8      -0.000000000000
  9       0.000000000000
 10      -0.000000000000
 11       0.000000000000
 12       0.000000000000
 13       0.000000000000
 14      -0.000000000000
 15      -0.000000000001
 16       0.000000000000
 17      -0.000000000000
 18       0.000000000000
 19       0.000000000000
 20       0.000000000001
 21      -0.000000000000
 22       0.000000000000
 23      -0.000000000000
 24      -0.000000000000
 25       0.000000000000
 26      -0.000000000000
 27      -0.000000000000
 28      -0.000000000000
 29      -0.000000000000
 30       0.000000000000
 31      -0.000000000000
 Sym=     1a
 Ene= -1.43730160641636E+01
 Spin=Beta
 Occup= 1.000000
  1       0.449066872774
  2       0.627920635987
  3       0.028620228791
  4      -0.015008615033
  5       0.004887210010
  6       0.000000000000
  7       0.000000000000
  8      -0.000000000000
  9       0.000000000000
 10      -0.000000000000
 11       0.000000000000
 12      -0.000000000000
 13       0.000000000000
 14      -0.000000000000
 15      -0.000000000000
 16       0.000000000000
 17       0.000000000000
 18       0.000000000000
 19       0.000000000000
 20       0.000000000000
 21      -0.000000000000
 22       0.000000000000
 23      -0.000000000000
 24      -0.000000000000
 25      -0.000000000000
 26       0.000000000000
 27       0.000000000000
 28       0.000000000000
 29      -0.000000000000
 30      -0.000000000000
 31       0.000000000000
 Sym=     1a
 Ene= -6.12206419640665E-01
 Spin=Beta
 Occup= 1.000000
  1       0.108351037307
  2       0.243830079570
  3      -0.381900738479
  4      -0.484569004647
  5      -0.270545507442
  6      -0.000000000001
  7       0.000000000002
  8      -0.000000000003
  9      -0.000000000000
 10       0.000000000001
 11      -0.000000000001
 12      -0.000000000001
 13       0.000000000002
 14      -0.000000000002
 15       0.000000000002
 16      -0.000000000000
 17       0.000000000000
 18      -0.000000000000
 19      -0.000000000000
 20      -0.000000000011
 21       0.000000000001
 22      -0.000000000001
 23       0.000000000004
 24       0.000000000000
 25       0.000000000000
 26       0.000000000000
 27      -0.000000000000
 28      -0.000000000000
 29      -0.000000000000
 30      -0.000000000000
 31      -0.000000000000
 Sym=     1a
 Ene= -1.07657120167896E-01
 Spin=Beta
 Occup= 0.000000
  1      -0.000000000000
  2      -0.000000000001
  3       0.000000000001
  4      -0.000000000000
  5       0.000000000004
  6      -0.016465266303
  7      -0.032485120179
  8      -0.421907665087
  9      -0.012949432530
 10      -0.025548561697
 11      -0.331817581475
 12      -0.018077971896
 13      -0.035666905036
 14      -0.463231797891
 15      -0.000000000000
 16      -0.000000000000
 17       0.000000000000
 18      -0.000000000000
 19       0.000000000000
 20       0.000000000000
 21      -0.000000000000
 22      -0.000000000000
 23      -0.000000000000
 24      -0.000000000000
 25      -0.000000000000
 26      -0.000000000000
 27      -0.000000000000
 28       0.000000000000
 29      -0.000000000000
 30      -0.000000000000
 31      -0.000000000000
 Sym=     1a
 Ene= -1.07657120167451E-01
 Spin=Beta
 Occup= 0.000000
  1      -0.000000000000