[Molden Format]
[Title]
 Molden file created by orca_2mkl for BaseName=orca_atom

[Atoms] AU
S    1  16          0.0000000000         0.0000000000         0.0000000000 
[GTO]
  1 0
s   7 1.0 
    60700.9281040000         1.4436857584
     9102.6106854000         2.6903416502
     2071.4166009000         4.5576134312
      586.0247682100         6.9181168905
      190.5539502100         8.6810242351
       67.6303842600         7.5175825950
       25.1273069050         2.7909007925
s   3 1.0 
      112.5746301000         2.4743724259
       34.7955542170         4.4305159183
        6.5115556215        -3.5107205047
s   2 1.0 
        3.2399032261         1.1617183740
        1.5477160881         0.3432559790
s   1 1.0 
        0.4054103011         0.3621022112
s   1 1.0 
        0.1455065106         0.1679082022
p   5 1.0 
      564.3671602700        13.6790181384
      133.4262437900        17.8952668313
       42.4682711890        19.5629319429
       15.6165275800        16.0036949290
        6.1093988469         8.3819669378
p   1 1.0 
        2.4404160198         4.3478036409
p   1 1.0 
        0.8388220130         1.1442669693
p   1 1.0 
        0.3128874690         0.3335610257
p   1 1.0 
        0.1077010900         0.0879458217
d   2 1.0 
        3.7560000000         5.2825000452
        0.8120000000         1.8103510309
d   1 1.0 
        0.2730000000         0.2939373103
f   1 1.0 
        0.5570000000         1.5281791442

[5D]
[7F]
[9G]
[MO]
 Sym=     1a
 Ene= -8.89126612625146E+01
 Spin= Alpha
 Occup= 1.000000
  1       0.999042333011
  2      -0.031216857321
  3      -0.009953154471
  4       0.002803012832
  5      -0.001189638810
  6       0.000000000000
  7       0.000000000000
  8       0.000000000000
  9       0.000000000000
 10      -0.000000000000
 11      -0.000000000000
 12      -0.000000000000
 13       0.000000000000
 14       0.000000000000
 15       0.000000000000
 16      -0.000000000000
 17      -0.000000000000
 18      -0.000000000000
 19       0.000000000000
 20       0.000000000000
 21       0.000001385221
 22       0.000000006670
 23       0.000000728736
 24       0.000002504851
 25      -0.000000045856
 26      -0.000000747479
 27      -0.000000003599
 28      -0.000000393233
 29      -0.000001351642
 30       0.000000024744
 31      -0.000000000000
 32       0.000000000000
 33       0.000000000000
 34      -0.000000000000
 35       0.000000000000
 36       0.000000000000
 37       0.000000000000
 Sym=     1a
 Ene= -7.98432961559630E+00
 Spin= Alpha
 Occup= 1.000000
  1       0.288246048560
  2       0.238394049805
  3      -0.809047211922
  4      -0.028478769265
  5       0.007822546265
  6       0.000000000000
  7      -0.000000000000
  8       0.000000000000
  9      -0.000000000000
 10      -0.000000000000
 11       0.000000000000
 12       0.000000000000
 13       0.000000000000
 14       0.000000000000
 15      -0.000000000000
 16      -0.000000000000
 17      -0.000000000000
 18       0.000000000000
 19       0.000000000000
 20       0.000000000000
 21      -0.000658449943
 22      -0.000003170434
 23      -0.000346396749
 24      -0.001190653705
 25       0.000021796981
 26       0.000216100249
 27       0.000001040521
 28       0.000113685822
 29       0.000390767073
 30      -0.000007153663
 31      -0.000000000000
 32       0.000000000000
 33       0.000000000000
 34      -0.000000000000
 35      -0.000000000000
 36       0.000000000000
 37       0.000000000000
 Sym=     1a
 Ene= -5.95307930820852E+00
 Spin= Alpha
 Occup= 1.000000
  1       0.000000000000
  2      -0.000000000000
  3      -0.000000000000
  4       0.000000000001
  5      -0.000000000001
  6      -0.713789425498
  7       0.003046855569
  8      -0.023967757964
  9      -0.341142938530
 10       0.001456190256
 11      -0.011454962880
 12      -0.074238786084
 13       0.000316893016
 14      -0.002492804175
 15       0.011343281598
 16      -0.000048419534
 17       0.000380886883
 18      -0.003449583651
 19       0.000014724771
 20      -0.000115830781
 21      -0.000000000000
 22       0.000000000000
 23      -0.000000000000
 24       0.000000000000
 25      -0.000000000000
 26       0.000000000000
 27      -0.000000000000
 28      -0.000000000000
 29      -0.000000000000
 30      -0.000000000000
 31      -0.000006912909
 32      -0.000084089149
 33      -0.000004125271
 34      -0.000010881420
 35      -0.000084276422
 36       0.000355520824
 37      -0.000008026622
 Sym=     1a
 Ene= -5.95307930776936E+00
 Spin= Alpha
 Occup= 1.000000
  1      -0.000000000000
  2       0.000000000000
  3       0.000000000000
  4      -0.000000000001
  5       0.000000000001
  6       0.023278660804
  7      -0.102954368614
  8      -0.706355139204
  9       0.011125621182
 10      -0.049205206165
 11      -0.337589853846
 12       0.002421133539
 13      -0.010707930188
 14      -0.073465571432
 15      -0.000369936000
 16       0.001636113331
 17       0.011225138627
 18       0.000112500529
 19      -0.000497555293
 20      -0.003413655418
 21       0.000000000000
 22       0.000000000000
 23      -0.000000000000
 24       0.000000000000
 25       0.000000000000
 26      -0.000000000000
 27      -0.000000000000
 28      -0.000000000000
 29      -0.000000000000
 30      -0.000000000000
 31      -0.000203730766
 32       0.000001531531
 33      -0.000144272039
 34      -0.000275073489
 35       0.000007902095
 36      -0.000010656604
 37       0.000051495302
 Sym=     1a
 Ene= -5.93392189564116E+00
 Spin= Alpha
 Occup= 1.000000
  1      -0.000000000000
  2      -0.000000000000
  3       0.000000000000
  4      -0.000000000000
  5       0.000000000000
  6      -0.006473311653
  7      -0.707264450627
  8       0.102873570096
  9      -0.003092687748
 10      -0.337902477424
 11       0.049148849722
 12      -0.000660628441
 13      -0.072179289651
 14       0.010498677278
 15       0.000100893590
 16       0.011023486080
 17      -0.001603396534
 18      -0.000030605766
 19      -0.003343941145
 20       0.000486385487
 21      -0.000000000000
 22      -0.000000000000
 23      -0.000000000000
 24       0.000000000000
 25       0.000000000000
 26       0.000000000000
 27      -0.000000000000
 28      -0.000000000000
 29      -0.000000000000
 30      -0.000000000000
 31       0.000095524314
 32      -0.000002278409
 33      -0.000248935463
 34       0.000125064508
 35      -0.000002289526
 36       0.000009638886
 37       0.000350964926
 Sym=     1a
 Ene= -7.21707132698111E-01
 Spin= Alpha
 Occup= 1.000000
  1       0.087592017448
  2       0.086550555223
  3      -0.499957556649
  4       0.741525950360
  5       0.454091009437
  6       0.000000000003
  7       0.000000000001
  8      -0.000000000001
  9      -0.000000000004
 10      -0.000000000001
 11      -0.000000000001
 12       0.000000000011
 13       0.000000000001
 14       0.000000000002
 15      -0.000000000024
 16      -0.000000000004
 17       0.000000000007
 18       0.000000000009
 19       0.000000000002
 20      -0.000000000003
 21       0.008766354721
 22       0.000042210304
 23       0.004611795802
 24       0.015851915989
 25      -0.000290198977
 26       0.010197536701
 27       0.000049101133
 28       0.005364711360
 29       0.018439877520
 30      -0.000337573651
 31      -0.000000000000
 32       0.000000000000
 33      -0.000000000000
 34      -0.000000000000
 35       0.000000000000
 36       0.000000000000
 37       0.000000000000
 Sym=     1a
 Ene= -3.31381559737283E-01
 Spin= Alpha
 Occup= 1.000000
  1       0.000000000002
  2       0.000000000000
  3      -0.000000000013
  4       0.000000000056
  5      -0.000000000060
  6       0.209116837982
  7      -0.000910080088
  8       0.006901742150
  9       0.096328894067
 10      -0.000419225274
 11       0.003179261903
 12      -0.260930237714
 13       0.001135574095
 14      -0.008611804160
 15      -0.569493216858
 16       0.002478445707
 17      -0.018795690594
 18      -0.333285542324
 19       0.001450454767
 20      -0.010999834341
 21      -0.000000000002
 22      -0.000000000001
 23      -0.000000000000
 24       0.000000000004
 25       0.000000000000
 26       0.000000000000
 27       0.000000000001
 28      -0.000000000001
 29      -0.000000000003
 30      -0.000000000001
 31      -0.000244859819
 32      -0.003030265203
 33      -0.000145646206
 34      -0.000386379326
 35      -0.003037147164
 36       0.012811758391
 37      -0.000290321103
 Sym=     1a
 Ene= -3.31381556251963E-01
 Spin= Alpha
 Occup= 1.000000
  1       0.000000000000
  2       0.000000000000
  3      -0.000000000003
  4       0.000000000017
  5      -0.000000000021
  6       0.006698602191
  7      -0.030161159170
  8      -0.206938994432
  9       0.003085686200
 10      -0.013893625816
 11      -0.095325678540
 12      -0.008358331570
 13       0.037634264650
 14       0.258212785236
 15      -0.018242474064
 16       0.082138653425
 17       0.563562237885
 18      -0.010676076121
 19       0.048070153655
 20       0.329814547812
 21       0.000000000000
 22      -0.000000000003
 23      -0.000000000001
 24      -0.000000000000
 25      -0.000000000000
 26      -0.000000000000
 27      -0.000000000004
 28      -0.000000000001
 29      -0.000000000001
 30       0.000000000000
 31       0.007341778564
 32      -0.000053434691
 33       0.005199068194
 34       0.009912765732
 35      -0.000282999610
 36       0.000376598641
 37      -0.001855515318
 Sym=     1a
 Ene= -2.83871102940715E-01
 Spin= Alpha
 Occup= 1.000000
  1      -0.000000000001
  2      -0.000000000000
  3       0.000000000004
  4      -0.000000000019
  5       0.000000000020
  6      -0.001859513686
  7      -0.203168643447
  8       0.029551442057
  9      -0.000846801312
 10      -0.092520712933
 11       0.013457394071
 12       0.002346260708
 13       0.256350283558
 14      -0.037286859153
 15       0.004863507356
 16       0.531382262293
 17      -0.077291022396
 18       0.003381069953
 19       0.369411116655
 20      -0.053731868896
 21      -0.000000000001
 22       0.000000000001
 23       0.000000000002
 24      -0.000000000000
 25      -0.000000000003
 26      -0.000000000001
 27       0.000000000002
 28       0.000000000001
 29       0.000000000001
 30      -0.000000000005
 31      -0.003511445603
 32       0.000083753362
 33       0.009150793793
 34      -0.004597334512
 35       0.000084162050
 36      -0.000354321537
 37      -0.012901367205
 Sym=     1a
 Ene= 2.58077424062797E-01
 Spin= Alpha
 Occup= 0.000000
  1      -0.000000000003
  2      -0.000000000002
  3       0.000000000022
  4      -0.000000000082
  5       0.000000000079
  6      -0.155789826117
  7       0.000921621329
  8      -0.003466759884
  9      -0.033136830352
 10       0.000196030535
 11      -0.000737387227
 12       0.061292438694
 13      -0.000362592786
 14       0.001363928267
 15       1.112442568695
 16      -0.006580993249
 17       0.024754963219
 18      -1.382476642346
 19       0.008178470934
 20      -0.030763979073
 21       0.000000000005
 22       0.000000000004
 23       0.000000000000
 24      -0.000000000006
 25      -0.000000000001
 26       0.000000000010
 27       0.000000000009
 28       0.000000000002
 29      -0.000000000006
 30      -0.000000000001
 31       0.000078852244
 32       0.001447088406
 33       0.000042589796
 34       0.000133094388
 35       0.001451564004
 36      -0.006118973465
 37       0.000148233518
 Sym=     1a
 Ene= 2.58077425879858E-01
 Spin= Alpha
 Occup= 0.000000
  1      -0.000000000000
  2      -0.000000000000
  3       0.000000000003
  4      -0.000000000015
  5       0.000000000017
  6      -0.003297867737
  7       0.022454574255
  8       0.154169562443
  9      -0.000701463539
 10       0.004776136154
 11       0.032792196682
 12       0.001297481093
 13      -0.008834310109
 14      -0.060654977831
 15       0.023548960450
 16      -0.160340535405
 17      -1.100872811619
 18      -0.029265230061
 19       0.199261561998
 20       1.368098443717
 21      -0.000000000005
 22       0.000000000013
 23      -0.000000000001
 24       0.000000000002
 25       0.000000000002
 26      -0.000000000013
 27       0.000000000034
 28      -0.000000000007
 29       0.000000000009
 30       0.000000000004
 31      -0.003506628684
 32       0.000009804791
 33      -0.002483069227
 34      -0.004734889441
 35       0.000119376379
 36      -0.000113397275
 37       0.000884417768
 Sym=     1a
 Ene= 2.78180775407467E-01
 Spin= Alpha
 Occup= 0.000000
  1      -0.000000000001
  2      -0.000000000000
  3       0.000000000006
  4      -0.000000000023
  5       0.000000000023
  6      -0.001454173973
  7      -0.158881845377
  8       0.023109804669
  9      -0.000283961390
 10      -0.031025358739
 11       0.004512724362
 12       0.000492001539
 13       0.053755602549
 14      -0.007818901227
 15       0.010347365326
 16       1.130545134135
 17      -0.164440923154
 18      -0.012478962959
 19      -1.363442689875
 20       0.198316519046
 21       0.000000000003
 22       0.000000000003
 23       0.000000000007
 24      -0.000000000003
 25      -0.000000000010
 26       0.000000000011
 27       0.000000000007
 28       0.000000000020
 29      -0.000000000010
 30      -0.000000000024
 31      -0.001813840884
 32       0.000043263000
 33       0.004726852224
 34      -0.002374757907
 35       0.000043474102
 36      -0.000183025633
 37      -0.006664214742
 Sym=     1a
 Ene= 2.88935662545114E-01
 Spin= Alpha
 Occup= 0.000000
  1       0.000000000979
  2       0.000000000844
  3      -0.000000006314
  4       0.000000019496
  5      -0.000000013477
  6       0.000000000005
  7       0.000000000003
  8       0.000000000004
  9       0.000000000012
 10       0.000000000001
 11       0.000000000001
 12      -0.000000000039
 13      -0.000000000001
 14      -0.000000000002
 15       0.000000000018
 16      -0.000000000026
 17      -0.000000000024
 18       0.000000000007
 19       0.000000000033
 20       0.000000000029
 21       0.220216199362
 22      -0.024157313974
 23       0.037207378002
 24      -0.132564211347
 25      -0.001136777670
 26       0.698511825619
 27      -0.076625467492
 28       0.118019444636
 29      -0.420485278467
 30      -0.003605795730
 31       0.000000000001
 32      -0.000000000002
 33      -0.000000000000
 34      -0.000000000000
 35      -0.000000000000
 36      -0.000000000001
 37       0.000000000000
 Sym=     1a
 Ene= 2.88935662545542E-01
 Spin= Alpha
 Occup= 0.000000
  1      -0.000000000029
  2      -0.000000000025
  3       0.000000000189
  4      -0.000000000594
  5       0.000000000423
  6      -0.000000000002
  7      -0.000000000000
  8       0.000000000008
  9      -0.000000000001
 10       0.000000000000
 11       0.000000000002
 12       0.000000000004
 13       0.000000000000
 14      -0.000000000005
 15       0.000000000012
 16      -0.000000000000
 17      -0.000000000048
 18      -0.000000000017
 19       0.000000000001
 20       0.000000000054
 21      -0.020993978104
 22      -0.256980852380
 23      -0.001174003187
 24       0.011947516016
 25      -0.037598864627
 26      -0.066591565634
 27      -0.815126976003
 28      -0.003723872439
 29       0.037896764908
 30      -0.119261216011
 31      -0.000000000002
 32      -0.000000000001
 33      -0.000000000000
 34       0.000000000002
 35       0.000000000000
 36      -0.000000000000
 37      -0.000000000000
 Sym=     1a
 Ene= 3.20760639590991E-01
 Spin= Alpha
 Occup= 0.000000
  1       0.000000006889
  2       0.000000004173
  3      -0.000000046318
  4       0.000000169731
  5      -0.000000155038
  6       0.000000000000
  7       0.000000000006
  8      -0.000000000001
  9       0.000000000000
 10       0.000000000002
 11      -0.000000000000
 12      -0.000000000000
 13      -0.000000000005
 14       0.000000000001
 15      -0.000000000004
 16      -0.000000000038
 17       0.000000000006
 18       0.000000000005
 19       0.000000000039
 20      -0.000000000006
 21       0.002011117033
 22       0.036356792799
 23      -0.008147354609
 24      -0.003423538964
 25      -0.250447951255
 26       0.006616001230
 27       0.119603355744
 28      -0.026802445272
 29      -0.011262463619
 30      -0.823901492438
 31       0.000000000000
 32       0.000000000000
 33      -0.000000000001
 34      -0.000000000000
 35      -0.000000000001
 36       0.000000000000
 37      -0.000000000002
 Sym=     1a
 Ene= 3.20760642139405E-01
 Spin= Alpha
 Occup= 0.000000
  1       0.000000000742
  2       0.000000000443
  3      -0.000000004986
  4       0.000000018310
  5      -0.000000016791
  6      -0.000000000000
  7      -0.000000000004
  8       0.000000000000
  9      -0.000000000000
 10      -0.000000000001
 11      -0.000000000000
 12       0.000000000000
 13       0.000000000002
 14       0.000000000001
 15       0.000000000001
 16       0.000000000027
 17      -0.000000000001
 18      -0.000000000001
 19      -0.000000000031
 20      -0.000000000001
 21       0.062441317877
 22      -0.003393757342
 23      -0.242596337965
 24       0.036192129503
 25       0.007405945559
 26       0.205413916652
 27      -0.011164492087
 28      -0.798071950770
 29       0.119061663340
 30       0.024363422475
 31      -0.000000000000
 32      -0.000000000001
 33      -0.000000000001
 34      -0.000000000000
 35       0.000000000002
 36       0.000000000000
 37      -0.000000000000
 Sym=     1a
 Ene= 3.32600590462021E-01
 Spin= Alpha
 Occup= 0.000000
  1       0.009214407800
  2       0.008041632953
  3      -0.059427391969
  4       0.181751481179
  5      -0.122675722918
  6       0.000000000001
  7      -0.000000000001
  8       0.000000000000
  9       0.000000000009
 10       0.000000000000
 11       0.000000000001
 12      -0.000000000029
 13      -0.000000000000
 14      -0.000000000001
 15       0.000000000031
 16       0.000000000005
 17      -0.000000000002
 18      -0.000000000011
 19      -0.000000000004
 20       0.000000000000
 21      -0.116005068292
 22      -0.000558560137
 23      -0.061027841131
 24      -0.209768176984
 25       0.003840151575
 26      -0.391070908768
 27      -0.001882992855
 28      -0.205734228960
 29      -0.707160758820
 30       0.012945745608
 31      -0.000000000001
 32       0.000000000001
 33       0.000000000000
 34      -0.000000000001
 35       0.000000000001
 36      -0.000000000002
 37      -0.000000000000
 Sym=     1a
 Ene= 3.69786854832604E-01
 Spin= Alpha
 Occup= 0.000000
  1      -0.087194922333
  2      -0.055921960296
  3       0.582978238555
  4      -2.092285448360
  5       1.858433550588
  6       0.000000000006
  7       0.000000000005
  8      -0.000000000001
  9      -0.000000000027
 10      -0.000000000003
 11      -0.000000000006
 12       0.000000000093
 13       0.000000000004
 14       0.000000000010
 15      -0.000000000163
 16      -0.000000000021
 17       0.000000000011
 18       0.000000000084
 19       0.000000000012
 20      -0.000000000007
 21      -0.021119602717
 22      -0.000101687272
 23      -0.011110586127
 24      -0.038189898679
 25       0.000699107007
 26      -0.019932220496
 27      -0.000095963675
 28      -0.010485936462
 29      -0.036042797805
 30       0.000659756265
 31       0.000000000000
 32      -0.000000000000
 33      -0.000000000000
 34       0.000000000000
 35      -0.000000000000
 36       0.000000000001
 37       0.000000000000
 Sym=     1a
 Ene= 1.37795069120721E+00
 Spin= Alpha
 Occup= 0.000000
  1       0.000000000177
  2       0.000000000178
  3      -0.000000001210
  4       0.000000004176
  5      -0.000000003189
  6      -0.000000000021
  7      -0.000000000000
  8      -0.000000000001
  9      -0.000000000037
 10      -0.000000000000
 11      -0.000000000001
 12       0.000000000171
 13       0.000000000001
 14       0.000000000004
 15      -0.000000000177
 16      -0.000000000001
 17      -0.000000000005
 18       0.000000000067
 19       0.000000000000
 20       0.000000000002
 21       1.010779773824
 22       0.031451693051
 23       0.169477034895
 24      -0.608083215470
 25       0.015481443132
 26      -0.760620300967
 27      -0.023667663881
 28      -0.127532897207
 29       0.457587745562
 30      -0.011649918381
 31       0.000000000002
 32      -0.000000000001
 33      -0.000000000001
 34      -0.000000000001
 35      -0.000000000001
 36       0.000000000004
 37      -0.000000000000
 Sym=     1a
 Ene= 1.37795069121481E+00
 Spin= Alpha
 Occup= 0.000000
  1      -0.000000000016
  2      -0.000000000016
  3       0.000000000113
  4      -0.000000000388
  5       0.000000000295
  6      -0.000000000000
  7       0.000000000000
  8       0.000000000002
  9      -0.000000000001
 10       0.000000000001
 11       0.000000000003
 12       0.000000000004
 13      -0.000000000003
 14      -0.000000000016
 15      -0.000000000005
 16       0.000000000003
 17       0.000000000019
 18       0.000000000002
 19      -0.000000000001
 20      -0.000000000008
 21      -0.025623930805
 22       1.179339925403
 23      -0.015097623722
 24       0.018557196935
 25       0.171233011610
 26       0.019282223474
 27      -0.887463235846
 28       0.011361090988
 29      -0.013964447385
 30      -0.128854284415
 31       0.000000000004
 32       0.000000000002
 33       0.000000000001
 34      -0.000000000004
 35      -0.000000000001
 36       0.000000000000
 37       0.000000000001
 Sym=     1a
 Ene= 1.40611378145560E+00
 Spin= Alpha
 Occup= 0.000000
  1       0.000000000045
  2       0.000000000018
  3      -0.000000000181
  4      -0.000000001590
  5       0.000000003736
  6       0.000000000001
  7       0.000000000001
  8      -0.000000000000
  9       0.000000000002
 10       0.000000000003
 11      -0.000000000000
 12      -0.000000000008
 13      -0.000000000015
 14       0.000000000002
 15       0.000000000009
 16       0.000000000017
 17      -0.000000000002
 18      -0.000000000004
 19      -0.000000000008
 20       0.000000000001
 21      -0.009468495468
 22      -0.171402211785
 23       0.038360424785
 24       0.016147490819
 25       1.180720639129
 26       0.007073369261
 27       0.128044786439
 28      -0.028656879167
 29      -0.012062866430
 30      -0.882048837796
 31      -0.000000000001
 32      -0.000000000000
 33       0.000000000002
 34       0.000000000001
 35       0.000000000003
 36      -0.000000000001
 37       0.000000000005
 Sym=     1a
 Ene= 1.40611378313543E+00
 Spin= Alpha
 Occup= 0.000000
  1       0.000000000008
  2       0.000000000001
  3      -0.000000000042
  4      -0.000000000097
  5       0.000000000347
  6       0.000000000000
  7      -0.000000000001
  8      -0.000000000000
  9       0.000000000000
 10      -0.000000000002
 11       0.000000000001
 12      -0.000000000000
 13       0.000000000008
 14      -0.000000000003
 15      -0.000000000000
 16      -0.000000000010
 17       0.000000000005
 18       0.000000000000
 19       0.000000000003
 20      -0.000000000003
 21      -0.294375572237
 22       0.015992218236
 23       1.143704918848
 24      -0.170624526799
 25      -0.034863488759
 26       0.219911148349
 27      -0.011946869491
 28      -0.854396510902
 29       0.127463821904
 30       0.026044518099
 31      -0.000000000000
 32       0.000000000001
 33       0.000000000002
 34       0.000000000000
 35      -0.000000000004
 36      -0.000000000001
 37       0.000000000000
 Sym=     1a
 Ene= 1.41636548429309E+00
 Spin= Alpha
 Occup= 0.000000
  1      -0.002324819651
  2      -0.001947677244
  3       0.016033441342
  4      -0.052668033821
  5       0.037473777914
  6       0.000000000013
  7      -0.000000000000
  8      -0.000000000000
  9       0.000000000022
 10      -0.000000000001
 11      -0.000000000001
 12      -0.000000000101
 13       0.000000000004
 14       0.000000000003
 15       0.000000000104
 16      -0.000000000004
 17      -0.000000000003
 18      -0.000000000039
 19       0.000000000002
 20       0.000000000001
 21       0.559938962750
 22       0.002696089602
 23       0.294572178357
 24       1.012519366887
 25      -0.018535854866
 26      -0.417222185486
 27      -0.002008912376
 28      -0.219491866544
 29      -0.754449272140
 30       0.013811450639
 31       0.000000000001
 32      -0.000000000004
 33       0.000000000000
 34       0.000000000002
 35      -0.000000000001
 36      -0.000000000000
 37       0.000000000000
 Sym=     1a
 Ene= 1.57506459143104E+00
 Spin= Alpha
 Occup= 0.000000
  1       0.000000000000
  2       0.000000000000
  3      -0.000000000000
  4       0.000000000000
  5      -0.000000000000
  6       0.000000002192
  7      -0.000000000068
  8      -0.000000000302
  9       0.000000002178
 10      -0.000000000066
 11      -0.000000000300
 12      -0.000000012085
 13       0.000000000370
 14       0.000000001665
 15       0.000000010720
 16      -0.000000000326
 17      -0.000000001476
 18      -0.000000004245
 19       0.000000000129
 20       0.000000000584
 21      -0.000000000003
 22       0.000000000002
 23      -0.000000000001
 24      -0.000000000004
 25       0.000000000000
 26       0.000000000000
 27      -0.000000000001
 28       0.000000000001
 29       0.000000000004
 30      -0.000000000000
 31       0.054025216254
 32      -0.945699052364
 33       0.018279747055
 34      -0.046796017434
 35      -0.173182949041
 36      -0.264566084114
 37       0.014933695589
 Sym=     1a
 Ene= 1.57506459143456E+00
 Spin= Alpha
 Occup= 0.000000
  1       0.000000000000
  2       0.000000000000
  3      -0.000000000000
  4       0.000000000000
  5      -0.000000000000
  6      -0.000000000309
  7      -0.000000000328
  8      -0.000000002163
  9      -0.000000000306
 10      -0.000000000323
 11      -0.000000002150
 12       0.000000001701
 13       0.000000001795
 14       0.000000011926
 15      -0.000000001507
 16      -0.000000001581
 17      -0.000000010577
 18       0.000000000597
 19       0.000000000626
 20       0.000000004188
 21      -0.000000000002
 22      -0.000000000007
 23      -0.000000000000
 24       0.000000000002
 25      -0.000000000001
 26       0.000000000001
 27       0.000000000003
 28       0.000000000000
 29      -0.000000000001
 30       0.000000000000
 31       0.764223131161
 32       0.068106448182
 33       0.135517292845
 34      -0.616681904805
 35       0.023592751981
 36       0.021694456100
 37       0.107869095528
 Sym=     1a
 Ene= 1.60352087035888E+00
 Spin= Alpha
 Occup= 0.000000
  1       0.000000000000
  2       0.000000000000
  3      -0.000000000000
  4       0.000000000000
  5       0.000000000000
  6      -0.000000000857
  7      -0.000000000988
  8      -0.000000003206
  9      -0.000000001192
 10      -0.000000001113
 11      -0.000000004448
 12       0.000000006270
 13       0.000000006058
 14       0.000000023423
 15      -0.000000006791
 16      -0.000000005859
 17      -0.000000025341
 18       0.000000002690
 19       0.000000002311
 20       0.000000010001
 21       0.000000000002
 22      -0.000000000002
 23      -0.000000000006
 24       0.000000000001
 25       0.000000000002
 26      -0.000000000001
 27       0.000000000001
 28       0.000000000002
 29      -0.000000000000
 30      -0.000000000001
 31      -0.031931904469
 32       0.224436979702
 33       0.083785632128
 34      -0.025319347566
 35      -0.951680818209
 36      -0.171194963017
 37       0.077092146146
 Sym=     1a
 Ene= 1.60352087036119E+00
 Spin= Alpha
 Occup= 0.000000
  1      -0.000000000000
  2      -0.000000000000
  3      -0.000000000000
  4      -0.000000000000
  5       0.000000000000
  6      -0.000000003334
  7      -0.000000002656
  8       0.000000001227
  9      -0.000000004579
 10      -0.000000002320
 11       0.000000001517
 12       0.000000024149
 13       0.000000013252
 14      -0.000000008127
 15      -0.000000025997
 16      -0.000000010652
 17       0.000000008291
 18       0.000000010260
 19       0.000000004193
 20      -0.000000003283
 21       0.000000000002
 22       0.000000000001
 23      -0.000000000002
 24      -0.000000000000
 25      -0.000000000006
 26      -0.000000000001
 27      -0.000000000000
 28       0.000000000001
 29       0.000000000000
 30       0.000000000003
 31      -0.271075098189
 32      -0.019676542299
 33       0.728888144256
 34      -0.064966166483
 35       0.113349298456
 36       0.037265046166
 37       0.613511082275
 Sym=     1a
 Ene= 1.62074062862807E+00
 Spin= Alpha
 Occup= 0.000000
  1       0.000000000000
  2       0.000000000000
  3      -0.000000000001
  4       0.000000000005
  5      -0.000000000005
  6      -0.021025996407
  7       0.000093775325
  8      -0.000678365071
  9      -0.019483658460
 10       0.000086898248
 11      -0.000628604625
 12       0.110749050447
 13      -0.000493945084
 14       0.003573115361
 15      -0.094729114703
 16       0.000422501639
 17      -0.003056262353
 18       0.036973534658
 19      -0.000164905750
 20       0.001192883750
 21      -0.000000000008
 22      -0.000000000001
 23      -0.000000000001
 24       0.000000000006
 25       0.000000000002
 26       0.000000000006
 27       0.000000000000
 28       0.000000000000
 29      -0.000000000008
 30      -0.000000000001
 31      -0.017674598873
 32      -0.223754138198
 33      -0.010467132338
 34      -0.027982179833
 35      -0.224274914004
 36       0.946025448650
 37      -0.021539392703
 Sym=     1a
 Ene= 1.62074063141439E+00
 Spin= Alpha
 Occup= 0.000000
  1       0.000000000000
  2       0.000000000000
  3      -0.000000000000
  4       0.000000000001
  5      -0.000000000000
  6      -0.000657776173
  7       0.003032461690
  8       0.020807040877
  9      -0.000609525748
 10       0.002810018701
 11       0.019280763989
 12       0.003464667487
 13      -0.015972714240
 14      -0.109595757583
 15      -0.002963500642
 16       0.013662248009
 17       0.093742646032
 18       0.001156678113
 19      -0.005332485173
 20      -0.036588507990
 21      -0.000000000001
 22       0.000000000001
 23      -0.000000000002