[Molden Format]
[Title]
 Molden file created by orca_2mkl for BaseName=orca_atom

[Atoms] AU
Br   1  35          0.0000000000         0.0000000000         0.0000000000 
[GTO]
  1 0
s   8 1.0 
   565073.2525600001         3.3990012394
    84701.7231790000         6.3499181482
    19276.2719000000        10.8859831023
     5456.4284576000        17.2039436538
     1776.9503500000        24.2626565298
      639.1939827600        26.9704461471
      248.7882396100        19.4265777777
       98.6783054940         5.3208566763
s   4 1.0 
      606.0782456800        -2.2463466937
      188.4559848400        -4.4022133004
       31.4971445060         5.2047584342
       13.7360083200         2.7479586123
s   2 1.0 
       21.2032127660        -2.9505371245
        3.7616420178         2.3029285358
s   1 1.0 
        1.7735933962         1.0953442670
s   1 1.0 
        0.4519741366         0.3928667554
s   1 1.0 
        0.1661337710         0.1854614003
p   6 1.0 
     3019.6955723000        86.0833905796
      715.3548112600       116.3377462169
      229.9832875100       133.6472264403
       86.1678446150       113.4235950299
       34.6678708020        57.7875990421
       14.1138703070        10.2838410355
p   4 1.0 
       57.0856530820        -4.3141001810
        8.8193845840         6.2531863141
        3.9340302872         4.0322880703
        1.7998830384         0.8804025271
p   1 1.0 
        0.6689941051         0.8624182765
p   1 1.0 
        0.2713623823         0.2791753967
p   1 1.0 
        0.1008379024         0.0809971694
d   5 1.0 
      168.8537025700       221.9389343364
       49.9779499190       182.4569423769
       18.2749133380       108.5541737599
        7.2455694631        40.3909948164
        2.8562315025         8.2892176569
d   1 1.0 
        1.0459621144         3.0840613138
d   1 1.0 
        0.5686565500         1.0615920654
d   1 1.0 
        0.2203149000         0.2019746459
f   1 1.0 
        0.5708331200         1.6149002296

[5D]
[7F]
[9G]
[MO]
 Sym=     1a
 Ene= -4.82891449303947E+02
 Spin= Alpha
 Occup= 1.000000
  1       0.997353408991
  2       0.007623157064
  3      -0.003659055098
  4       0.003015893742
  5      -0.001000094608
  6       0.000374612843
  7       0.000000000000
  8       0.000000000000
  9      -0.000000000000
 10      -0.000000000000
 11      -0.000000000000
 12       0.000000000000
 13       0.000000000000
 14       0.000000000000
 15      -0.000000000000
 16      -0.000000000000
 17      -0.000000000000
 18       0.000000000000
 19       0.000000000000
 20       0.000000000000
 21      -0.000000000000
 22      -0.000000274689
 23       0.000000005650
 24      -0.000000066308
 25      -0.000000473461
 26      -0.000000081270
 27       0.000000256744
 28      -0.000000005281
 29       0.000000061976
 30       0.000000442529
 31       0.000000075960
 32      -0.000000198852
 33       0.000000004090
 34      -0.000000048002
 35      -0.000000342745
 36      -0.000000058832
 37       0.000000053643
 38      -0.000000001103
 39       0.000000012949
 40       0.000000092460
 41       0.000000015871
 42      -0.000000000000
 43       0.000000000000
 44      -0.000000000000
 45       0.000000000000
 46      -0.000000000000
 47       0.000000000000
 48       0.000000000000
 Sym=     1a
 Ene= -6.25386498963705E+01
 Spin= Alpha
 Occup= 1.000000
  1       0.326132394838
  2      -1.039741324012
  3      -0.049340857770
  4       0.021290903229
  5      -0.005502762130
  6       0.001987262109
  7      -0.000000000001
  8      -0.000000000000
  9       0.000000000021
 10      -0.000000000000
 11       0.000000000000
 12       0.000000000001
 13       0.000000000000
 14       0.000000000000
 15      -0.000000000001
 16      -0.000000000000
 17      -0.000000000000
 18       0.000000000000
 19      -0.000000000000
 20       0.000000000000
 21      -0.000000000000
 22       0.000046484455
 23      -0.000000956064
 24       0.000011221061
 25       0.000080121714
 26       0.000013752936
 27      -0.000036019276
 28       0.000000740823
 29      -0.000008694832
 30      -0.000062083682
 31      -0.000010656698
 32       0.000027727696
 33      -0.000000570287
 34       0.000006693295
 35       0.000047792117
 36       0.000008203543
 37      -0.000007587301
 38       0.000000156051
 39      -0.000001831528
 40      -0.000013077652
 41      -0.000002244786
 42      -0.000000000000
 43       0.000000000000
 44      -0.000000000000
 45      -0.000000000000
 46      -0.000000000000
 47       0.000000000000
 48      -0.000000000000
 Sym=     1a
 Ene= -5.63583093775880E+01
 Spin= Alpha
 Occup= 1.000000
  1       0.000000000001
  2      -0.000000000002
  3      -0.000000000000
  4       0.000000000000
  5      -0.000000000000
  6       0.000000000000
  7      -0.084129245721
  8       0.987406554012
  9      -0.068641302568
 10      -0.001523516474
 11       0.017881179585
 12      -0.001243041635
 13       0.000513413318
 14      -0.006025819808
 15       0.000418895458
 16      -0.000317987363
 17       0.003732148115
 18      -0.000259446838
 19       0.000104034884
 20      -0.001221034681
 21       0.000084882373
 22       0.000000000000
 23       0.000000000000
 24      -0.000000000001
 25      -0.000000000000
 26       0.000000000000
 27      -0.000000000000
 28      -0.000000000000
 29       0.000000000001
 30       0.000000000000
 31      -0.000000000000
 32       0.000000000000
 33       0.000000000000
 34      -0.000000000001
 35      -0.000000000000
 36       0.000000000000
 37      -0.000000000000
 38      -0.000000000000
 39       0.000000000000
 40       0.000000000000
 41      -0.000000000000
 42       0.000000015295
 43       0.000000007530
 44      -0.000000088381
 45       0.000000019523
 46       0.000000003351
 47      -0.000000029449
 48       0.000000112978
 Sym=     1a
 Ene= -5.63505825823136E+01
 Spin= Alpha
 Occup= 1.000000
  1       0.000000000006
  2      -0.000000000018
  3      -0.000000000000
  4       0.000000000000
  5       0.000000000000
  6      -0.000000000000
  7      -0.527043087485
  8      -0.103001244653
  9      -0.835712092914
 10      -0.009516906626
 11      -0.001859910985
 12      -0.015090595329
 13       0.003201307624
 14       0.000625638923
 15       0.005076191222
 16      -0.001982462729
 17      -0.000387437258
 18      -0.003143515427
 19       0.000648564356
 20       0.000126750426
 21       0.001028403726
 22       0.000000000001
 23       0.000000000001
 24       0.000000000000
 25      -0.000000000000
 26      -0.000000000000
 27      -0.000000000001
 28      -0.000000000001
 29      -0.000000000000
 30       0.000000000000
 31       0.000000000000
 32       0.000000000001
 33       0.000000000000
 34       0.000000000000
 35      -0.000000000000
 36      -0.000000000000
 37      -0.000000000000
 38      -0.000000000000
 39      -0.000000000000
 40       0.000000000000
 41       0.000000000000
 42       0.000000069226
 43       0.000000016129
 44       0.000000023370
 45       0.000000087580
 46       0.000000023215
 47      -0.000000067038
 48      -0.000000025463
 Sym=     1a
 Ene= -5.63505825817973E+01
 Spin= Alpha
 Occup= 1.000000
  1      -0.000000000004
  2       0.000000000013
  3       0.000000000000
  4      -0.000000000000
  5      -0.000000000000
  6       0.000000000000
  7      -0.837822153575
  8      -0.034359100785
  9       0.532608548450
 10      -0.015128697050
 11      -0.000620428123
 12       0.009617403099
 13       0.005089007921
 14       0.000208700301
 15      -0.003235112739
 16      -0.003151452380
 17      -0.000129241116
 18       0.002003397106
 19       0.001031000307
 20       0.000042281340
 21      -0.000655413055
 22      -0.000000000001
 23       0.000000000001
 24       0.000000000000
 25      -0.000000000000
 26       0.000000000000
 27       0.000000000001
 28      -0.000000000001
 29      -0.000000000000
 30       0.000000000000
 31       0.000000000000
 32      -0.000000000001
 33       0.000000000001
 34       0.000000000000
 35      -0.000000000000
 36      -0.000000000000
 37       0.000000000000
 38      -0.000000000000
 39      -0.000000000000
 40       0.000000000000
 41       0.000000000000
 42      -0.000000044119
 43       0.000000029413
 44      -0.000000011512
 45      -0.000000058826
 46       0.000000002741
 47      -0.000000109491
 48      -0.000000023449
 Sym=     1a
 Ene= -8.72997854905262E+00
 Spin= Alpha
 Occup= 1.000000
  1      -0.127825232574
  2       0.503426363785
  3      -0.587269860223
  4      -0.511438939626
  5      -0.038999321520
  6       0.009221556116
  7       0.000000000001
  8      -0.000000000003
  9      -0.000000000039
 10      -0.000000000003
 11       0.000000000007
 12       0.000000000100
 13       0.000000000001
 14       0.000000000002
 15       0.000000000004
 16      -0.000000000000
 17      -0.000000000001
 18      -0.000000000003
 19       0.000000000000
 20      -0.000000000000
 21       0.000000000001
 22       0.000990105871
 23      -0.000020363906
 24       0.000239005439
 25       0.001706570050
 26       0.000292933689
 27       0.000576302468
 28      -0.000011853048
 29       0.000139115843
 30       0.000993328655
 31       0.000170505408
 32      -0.000231288167
 33       0.000004756997
 34      -0.000055831503
 35      -0.000398653792
 36      -0.000068429132
 37       0.000061333538
 38      -0.000001261472
 39       0.000014805529
 40       0.000105715946
 41       0.000018146198
 42      -0.000000000000
 43       0.000000000000
 44      -0.000000000000
 45      -0.000000000000
 46      -0.000000000000
 47       0.000000000000
 48      -0.000000000000
 Sym=     1a
 Ene= -6.56669355653763E+00
 Spin= Alpha
 Occup= 1.000000
  1      -0.000000000000
  2       0.000000000001
  3       0.000000000000
  4      -0.000000000005
  5       0.000000000009
  6      -0.000000000005
  7      -0.035185230244
  8       0.412961348986
  9      -0.028707731845
 10       0.089528099279
 11      -1.050771712868
 12       0.073046236982
 13       0.003685548461
 14      -0.043256475807
 15       0.003007049735
 16      -0.000622120005
 17       0.007301686418
 18      -0.000507589515
 19       0.000168443897
 20      -0.001976989188
 21       0.000137433860
 22      -0.000000000004
 23      -0.000000000003
 24       0.000000000036
 25      -0.000000000002
 26      -0.000000000001
 27      -0.000000000002
 28      -0.000000000001
 29       0.000000000008
 30      -0.000000000002
 31       0.000000000001
 32       0.000000000001
 33       0.000000000000
 34      -0.000000000004
 35       0.000000000000
 36      -0.000000000000
 37      -0.000000000000
 38       0.000000000000
 39       0.000000000001
 40      -0.000000000000
 41       0.000000000000
 42      -0.000059438024
 43      -0.000029263475
 44       0.000343459010
 45      -0.000075870767
 46      -0.000013023283
 47       0.000114444155
 48      -0.000439046820
 Sym=     1a
 Ene= -6.54530930376924E+00
 Spin= Alpha
 Occup= 1.000000
  1      -0.000000000010
  2       0.000000000039
  3      -0.000000000051
  4      -0.000000000034
  5      -0.000000000004
  6      -0.000000000001
  7       0.221704925363
  8       0.043145389737
  9       0.348917830007
 10      -0.564288014103
 11      -0.109814548562
 12      -0.888072960297
 13      -0.022334356490
 14      -0.004346428071
 15      -0.035149671071
 16       0.003578393844
 17       0.000696381459
 18       0.005631653937
 19      -0.000951166393
 20      -0.000185103901
 21      -0.001496939744
 22       0.000000000036
 23       0.000000000019
 24       0.000000000006
 25      -0.000000000001
 26       0.000000000001
 27       0.000000000007
 28       0.000000000005
 29       0.000000000002
 30       0.000000000000
 31       0.000000000001
 32      -0.000000000004
 33      -0.000000000003
 34      -0.000000000001
 35      -0.000000000000
 36      -0.000000000001
 37       0.000000000001
 38       0.000000000001
 39       0.000000000000
 40       0.000000000000
 41       0.000000000000
 42       0.000237006921
 43       0.000055679531
 44       0.000080049209
 45       0.000299808933
 46       0.000079683801
 47      -0.000231279962
 48      -0.000087635516
 Sym=     1a
 Ene= -6.54530930228400E+00
 Spin= Alpha
 Occup= 1.000000
  1       0.000000000007
  2      -0.000000000026
  3       0.000000000031
  4       0.000000000030
  5      -0.000000000007
  6       0.000000000008
  7       0.349808569913
  8       0.014230593202
  9      -0.224030590160
 10      -0.890340090157
 11      -0.036220003522
 12       0.570207344807
 13      -0.035239403309
 14      -0.001433577268
 15       0.022568641822
 16       0.005646030739
 17       0.000229686669
 18      -0.003615930848
 19      -0.001500761213
 20      -0.000061052596
 21       0.000961144035
 22      -0.000000000023
 23       0.000000000032
 24       0.000000000000
 25      -0.000000000001
 26       0.000000000002
 27      -0.000000000006
 28       0.000000000006
 29      -0.000000000001
 30       0.000000000000
 31       0.000000000002
 32       0.000000000003
 33      -0.000000000004
 34      -0.000000000000
 35      -0.000000000000
 36      -0.000000000001
 37      -0.000000000001
 38       0.000000000001
 39       0.000000000000
 40      -0.000000000000
 41       0.000000000000
 42      -0.000152175637
 43       0.000100729327
 44      -0.000039769039
 45      -0.000202849195
 46       0.000009134459
 47      -0.000374891016
 48      -0.000080160990
 Sym=     1a
 Ene= -2.67835146822959E+00
 Spin= Alpha
 Occup= 1.000000
  1      -0.000586730419
  2       0.001984112959
  3      -0.003675052105
  4      -0.003560194350
  5       0.006495903157
  6      -0.000362375587
  7       0.000000000000
  8      -0.000000000001
  9       0.000000000009
 10      -0.000000000001
 11       0.000000000002
 12      -0.000000000023
 13       0.000000000003
 14      -0.000000000006
 15      -0.000000000002
 16      -0.000000000002
 17      -0.000000000000
 18      -0.000000000001
 19      -0.000000000000
 20       0.000000000000
 21       0.000000000000
 22      -0.446920084798
 23       0.009191910958
 24      -0.107883740238
 25      -0.770322029517
 26      -0.132226203758
 27      -0.088348240978
 28       0.001817079135
 29      -0.021326718161
 30      -0.152279117908
 31      -0.026138795086
 32      -0.004058986057
 33       0.000083482146
 34      -0.000979814154
 35      -0.006996164405
 36      -0.001200895522
 37      -0.003293300709
 38       0.000067734093
 39      -0.000794982375
 40      -0.005676410996
 41      -0.000974359092
 42       0.000000000002
 43       0.000000000001
 44       0.000000000002
 45       0.000000000002
 46       0.000000000001
 47      -0.000000000002
 48      -0.000000000002
 Sym=     1a
 Ene= -2.67309993425575E+00
 Spin= Alpha
 Occup= 1.000000
  1      -0.000000000005
  2       0.000000000078
  3       0.000000000063
  4      -0.000000000421
  5       0.000000000578
  6      -0.000000000206
  7      -0.000000000000
  8       0.000000000013
  9      -0.000000000000
 10       0.000000000001
 11      -0.000000000034
 12      -0.000000000000
 13       0.000000000004
 14      -0.000000000001
 15       0.000000000004
 16      -0.000000000001
 17      -0.000000000003
 18       0.000000000001
 19      -0.000000000000
 20       0.000000000002
 21       0.000000000001
 22       0.091090832729
 23       0.097949067937
 24      -0.750017783437
 25       0.134687489340
 26      -0.473794135814
 27       0.017948253964
 28       0.019299579292
 29      -0.147781167795
 30       0.026538403322
 31      -0.093354920690
 32       0.000807711602
 33       0.000868524316
 34      -0.006650483150
 35       0.001194287439
 36      -0.004201180288
 37       0.000667860887
 38       0.000718144167
 39      -0.005498989639
 40       0.000987503420
 41      -0.003473769684
 42      -0.000000000001
 43      -0.000000000000
 44       0.000000000002
 45      -0.000000000002
 46       0.000000000002
 47       0.000000000001
 48       0.000000000001
 Sym=     1a
 Ene= -2.67309993316918E+00
 Spin= Alpha
 Occup= 1.000000
  1       0.000000000001
  2      -0.000000000021
  3      -0.000000000015
  4       0.000000000110
  5      -0.000000000156
  6       0.000000000063
  7       0.000000000002
  8      -0.000000000008
  9      -0.000000000000
 10      -0.000000000005
 11       0.000000000020
 12       0.000000000000
 13       0.000000000006
 14       0.000000000004
 15      -0.000000000003
 16      -0.000000000003
 17       0.000000000002
 18       0.000000000000
 19      -0.000000000001
 20       0.000000000001
 21      -0.000000000000
 22      -0.058615861439
 23       0.011248180370
 24       0.488956058400
 25       0.095403925813
 26      -0.755842286037
 27      -0.011549486789
 28       0.002216306461
 29       0.096342378611
 30       0.018798092379
 31      -0.148928809525
 32      -0.000519752796
 33       0.000099738805
 34       0.004335622566
 35       0.000845956257
 36      -0.006702129589
 37      -0.000429760486
 38       0.000082469535
 39       0.003584934059
 40       0.000699483666
 41      -0.005541693792
 42       0.000000000001
 43       0.000000000000
 44      -0.000000000002
 45       0.000000000001
 46       0.000000000001
 47       0.000000000002
 48       0.000000000001
 Sym=     1a
 Ene= -2.65733552939005E+00
 Spin= Alpha
 Occup= 1.000000
  1       0.000000000015
  2      -0.000000000049
  3       0.000000000095
  4       0.000000000085
  5      -0.000000000164
  6       0.000000000014
  7      -0.000000000003
  8       0.000000000001
  9       0.000000000015
 10       0.000000000007
 11      -0.000000000002
 12      -0.000000000039
 13      -0.000000000004
 14      -0.000000000002
 15      -0.000000000005
 16       0.000000000004
 17       0.000000000002
 18      -0.000000000002
 19       0.000000000001
 20       0.000000000001
 21       0.000000000000
 22      -0.774539135161
 23       0.136482742481
 24      -0.050544416811
 25       0.443420439457
 26       0.085369017204
 27      -0.151073363503
 28       0.026620871725
 29      -0.009858656153
 30       0.086488873430
 31       0.016651172235
 32      -0.006528886006
 33       0.001150465126
 34      -0.000426058096
 35       0.003737760140
 36       0.000719607990
 37      -0.005577870607
 38       0.000982885234
 39      -0.000363997402
 40       0.003193307766
 41       0.000614787963
 42       0.000000000003
 43      -0.000000000000
 44       0.000000000001
 45      -0.000000000001
 46      -0.000000000001
 47       0.000000000000
 48      -0.000000000000
 Sym=     1a
 Ene= -2.65733552938612E+00
 Spin= Alpha
 Occup= 1.000000
  1      -0.000000000051
  2       0.000000000171
  3      -0.000000000327
  4      -0.000000000301
  5       0.000000000581
  6      -0.000000000057
  7      -0.000000000014
  8      -0.000000000001
  9      -0.000000000002
 10       0.000000000039
 11       0.000000000004
 12       0.000000000007
 13       0.000000000003
 14       0.000000000001
 15      -0.000000000002
 16       0.000000000004
 17      -0.000000000000
 18       0.000000000001
 19      -0.000000000001
 20      -0.000000000001
 21      -0.000000000002
 22       0.113782113694
 23       0.892494636665
 24       0.085175942389
 25      -0.075871875802
 26       0.049981752868
 27       0.022193128594
 28       0.174080508707
 29       0.016613513121
 30      -0.014798760883
 31       0.009748908912
 32       0.000959112863
 33       0.007523177958
 34       0.000717980483
 35      -0.000639552997
 36       0.000421315187
 37       0.000819405860
 38       0.006427331266
 39       0.000613397532
 40      -0.000546393965
 41       0.000359945355
 42       0.000000000000
 43      -0.000000000003
 44      -0.000000000000
 45      -0.000000000000
 46      -0.000000000001
 47      -0.000000000000
 48       0.000000000000
 Sym=     1a
 Ene= -7.94367790409010E-01
 Spin= Alpha
 Occup= 1.000000
  1       0.044160293948
  2      -0.142396815074
  3       0.302144975442
  4       0.426100171155
  5      -0.721853044623
  6      -0.537820759677
  7      -0.000000000001
  8       0.000000000018
  9      -0.000000000013
 10       0.000000000000
 11      -0.000000000061
 12       0.000000000049
 13       0.000000000059
 14       0.000000000117
 15      -0.000000000165
 16      -0.000000000196
 17      -0.000000000082
 18       0.000000000262
 19       0.000000000188
 20       0.000000000141
 21      -0.000000000248
 22      -0.006747241075
 23       0.000138773303
 24      -0.001628743766
 25      -0.011629705374
 26      -0.001996245827
 27      -0.000043628688
 28       0.000000897246
 29      -0.000010531529
 30      -0.000075199400
 31      -0.000012908005
 32       0.010067069657
 33      -0.000207053729
 34       0.002430131891
 35       0.017351841130
 36       0.002978454333
 37       0.006216033209
 38      -0.000127847128
 39       0.001500511584
 40       0.010714102258
 41       0.001839081354
 42       0.000000000001
 43      -0.000000000000
 44       0.000000000002
 45       0.000000000000
 46       0.000000000001
 47      -0.000000000001
 48       0.000000000002
 Sym=     1a
 Ene= -3.70476193311093E-01
 Spin= Alpha
 Occup= 1.000000
  1      -0.000000000003
  2       0.000000000006
  3      -0.000000000030
  4       0.000000000013
  5      -0.000000000096
  6       0.000000000212
  7      -0.009691107833
  8       0.113742414569
  9      -0.007907002408
 10       0.031813195249
 11      -0.373384519195
 12       0.025956476446
 13      -0.029313126081
 14       0.344041748073
 15      -0.023916663970
 16      -0.047065079390
 17       0.552392546206
 18      -0.038400532687
 19      -0.023275164270
 20       0.273175561424
 21      -0.018990264360
 22      -0.000000000003
 23       0.000000000003
 24      -0.000000000007
 25      -0.000000000014
 26       0.000000000003
 27       0.000000000001
 28      -0.000000000004
 29      -0.000000000008
 30       0.000000000006
 31      -0.000000000002
 32       0.000000000010
 33       0.000000000011
 34      -0.000000000006
 35       0.000000000007
 36       0.000000000001
 37      -0.000000000012
 38      -0.000000000029
 39       0.000000000060
 40       0.000000000031
 41       0.000000000002
 42       0.001860928620
 43       0.000916202108
 44      -0.010753263612
 45       0.002375416852
 46       0.000407742165
 47      -0.003583100469
 48       0.013745995862
 Sym=     1a
 Ene= -3.22585957469742E-01
 Spin= Alpha
 Occup= 1.000000
  1      -0.000000000007
  2       0.000000000042
  3      -0.000000000027
  4      -0.000000000241
  5       0.000000000734
  6      -0.000000000624
  7       0.060280609288
  8       0.011668409860
  9       0.093968281270
 10      -0.198014925748
 11      -0.038329395340
 12      -0.308675085698
 13       0.184451766309
 14       0.035703997196
 15       0.287532187459
 16       0.281808896733
 17       0.054549243173
 18       0.439297113699
 19       0.168753520490
 20       0.032665331438
 21       0.263061015935
 22      -0.000000000007
 23       0.000000000004
 24       0.000000000015
 25       0.000000000005
 26       0.000000000009
 27      -0.000000000004
 28      -0.000000000013
 29      -0.000000000005
 30      -0.000000000013
 31      -0.000000000005
 32      -0.000000000013
 33       0.000000000008
 34      -0.000000000011
 35       0.000000000016
 36      -0.000000000004
 37       0.000000000073
 38       0.000000000003
 39      -0.000000000039
 40      -0.000000000032
 41      -0.000000000022
 42      -0.007523027540
 43      -0.001786080074
 44      -0.002542500489
 45      -0.009515057843
 46      -0.002537574337
 47       0.007412998721
 48       0.002800413333
 Sym=     1a
 Ene= -3.22585955208988E-01
 Spin= Alpha
 Occup= 1.000000
  1      -0.000000000006
  2       0.000000000032
  3      -0.000000000021
  4      -0.000000000183
  5       0.000000000578
  6      -0.000000000507
  7      -0.094211539541
  8      -0.003792933037
  9       0.060907642731
 10       0.309474161347
 11       0.012459352424
 12      -0.200074659069
 13      -0.288276529509
 14      -0.011605941471
 15       0.186370416583
 16      -0.440434333500
 17      -0.017731776575
 18       0.284740247021
 19      -0.263742013996
 20      -0.010618184083
 21       0.170508882334
 22       0.000000000000
 23       0.000000000005
 24       0.000000000006
 25      -0.000000000005
 26      -0.000000000006
 27      -0.000000000012
 28       0.000000000010
 29       0.000000000005
 30       0.000000000010
 31      -0.000000000004
 32       0.000000000005
 33      -0.000000000003
 34      -0.000000000021
 35      -0.000000000017
 36       0.000000000028
 37       0.000000000018
 38      -0.000000000030
 39       0.000000000008
 40       0.000000000046
 41      -0.000000000023
 42      -0.004876218028
 43       0.003198563937
 44      -0.001276816309
 45      -0.006497758469
 46       0.000279823915
 47      -0.011901009978
 48      -0.002539496295
 Sym=     1a
 Ene= 2.22089542094551E-01
 Spin= Alpha
 Occup= 0.000000
  1       0.000000000007
  2      -0.000000000030
  3       0.000000000037
  4       0.000000000141
  5      -0.000000000395
  6       0.000000000252
  7      -0.005757010336
  8       0.067568781432
  9      -0.004697159092
 10       0.018923578900
 11      -0.222101940640
 12       0.015439795190
 13      -0.007999119584
 14       0.093883943058
 15      -0.006526499674
 16      -0.097019293598
 17       1.138694340097
 18      -0.079158294483
 19       0.124422490863
 20      -1.460319675294
 21       0.101516640189
 22      -0.000000000003
 23      -0.000000000014
 24       0.000000000124
 25       0.000000000012
 26       0.000000000015
 27      -0.000000000003
 28       0.000000000014
 29      -0.000000000132
 30      -0.000000000023
 31      -0.000000000013
 32       0.000000000018
 33      -0.000000000015
 34       0.000000000147
 35       0.000000000055
 36       0.000000000007
 37      -0.000000000029
 38       0.000000000085
 39      -0.000000000767
 40      -0.000000000153
 41      -0.000000000077
 42       0.000949062995
 43       0.000467257791
 44      -0.005484102233
 45       0.001211449050
 46       0.000207946307
 47      -0.001827360645
 48       0.007010378473
 Sym=     1a
 Ene= 2.40149209856735E-01
 Spin= Alpha
 Occup= 0.000000
  1       0.000000000005
  2      -0.000000000029
  3       0.000000000013
  4       0.000000000159
  5      -0.000000000425
  6       0.000000000320
  7      -0.036860979257
  8      -0.007206438186
  9      -0.058486641941
 10       0.120947786235
 11       0.023645675309
 12       0.191905641406
 13      -0.046727155174
 14      -0.009135309471
 15      -0.074141123032
 16      -0.624365473493
 17      -0.122065413608
 18      -0.990669282230
 19       0.778395927765
 20       0.152178845114
 21       1.235066587657
 22      -0.000000000145
 23      -0.000000000065
 24      -0.000000000009
 25      -0.000000000073
 26      -0.000000000003
 27       0.000000000151
 28       0.000000000073
 29      -0.000000000003
 30       0.000000000051
 31      -0.000000000007
 32      -0.000000000161
 33      -0.000000000082
 34       0.000000000030
 35      -0.000000000026
 36       0.000000000027
 37       0.000000000887
 38       0.000000000408
 39      -0.000000000005
 40       0.000000000385
 41      -0.000000000028
 42       0.004125657244
 43       0.000960538956
 44       0.001392702419
 45       0.005219531686
 46       0.001383241796
 47      -0.003992629645
 48      -0.001516810474
 Sym=     1a
 Ene= 2.40149210486099E-01
 Spin= Alpha
 Occup= 0.000000
  1       0.000000000010
  2      -0.000000000041
  3       0.000000000056
  4       0.000000000176
  5      -0.000000000432
  6       0.000000000183
  7       0.058634173289
  8       0.002406233149
  9      -0.037250444591
 10      -0.192389719420
 11      -0.007895302242
 12       0.122225695036
 13       0.074328142634
 14       0.003050282748
 15      -0.047220864516
 16       0.993168222549
 17       0.040757707528
 18      -0.630962385912
 19      -1.238182011249
 20      -0.050812602409
 21       0.786620291010
 22      -0.000000000092
 23       0.000000000081
 24      -0.000000000001
 25      -0.000000000031
 26      -0.000000000011
 27       0.000000000095
 28      -0.000000000098
 29      -0.000000000010
 30       0.000000000019
 31       0.000000000022
 32      -0.000000000098
 33       0.000000000124
 34       0.000000000031
 35      -0.000000000002
 36      -0.000000000043
 37       0.000000000543
 38      -0.000000000526
 39      -0.000000000038
 40       0.000000000154
 41       0.000000000120
 42       0.002627652054
 43      -0.001752855478
 44       0.000685547913
 45       0.003503670962
 46      -0.000163708515
 47       0.006525250523
 48       0.001397692397
 Sym=     1a
 Ene= 2.61510790094129E-01
 Spin= Alpha
 Occup= 0.000000
  1       0.003139808782
  2      -0.011371280728
  3       0.020146348508
  4       0.048380346044
  5      -0.146889558791
  6       0.086833323301
  7      -0.000000000007
  8      -0.000000000013
  9      -0.000000000050
 10       0.000000000022
 11       0.000000000042
 12       0.000000000163
 13      -0.000000000016
 14       0.000000000008
 15      -0.000000000028
 16      -0.000000000061
 17      -0.000000000326
 18      -0.000000000967
 19       0.000000000038
 20       0.000000000430
 21       0.000000001211
 22       0.089339125996
 23      -0.001837456093
 24       0.021565859738
 25       0.153987029259
 26       0.026431941408
 27      -0.064022929301
 28       0.001316772793
 29      -0.015454699729
 30      -0.110351434386
 31      -0.018941871716
 32       0.037553351515
 33      -0.000772367927
 34       0.009065120257
 35       0.064727844864
 36       0.011110561466
 37      -0.492396671501
 38       0.010127224132
 39      -0.118861215167
 40      -0.848706542747
 41      -0.145680849960
 42      -0.000000000013
 43      -0.000000000000
 44       0.000000000015
 45      -0.000000000018
 46      -0.000000000003
 47       0.000000000002
 48      -0.000000000023
 Sym=     1a