
                                 *****************
                                 * O   R   C   A *
                                 *****************

           --- An Ab Initio, DFT and Semiempirical electronic structure package ---

                  #######################################################
                  #                        -***-                        #
                  #          Department of theory and spectroscopy      #
                  #               Directorship: Frank Neese             #
                  #        Max Planck Institute fuer Kohlenforschung    #
                  #                Kaiser Wilhelm Platz 1               #
                  #                 D-45470 Muelheim/Ruhr               #
                  #                      Germany                        #
                  #                                                     #
                  #                  All rights reserved                #
                  #                        -***-                        #
                  #######################################################


                         Program Version 4.2.1 -  RELEASE  -


 With contributions from (in alphabetic order):
   Daniel Aravena         : Magnetic Suceptibility
   Michael Atanasov       : Ab Initio Ligand Field Theory (pilot matlab implementation)
   Alexander A. Auer      : GIAO ZORA, VPT2
   Ute Becker             : Parallelization
   Giovanni Bistoni       : ED, misc. LED, open-shell LED, HFLD
   Martin Brehm           : Molecular dynamics
   Dmytro Bykov           : SCF Hessian
   Vijay G. Chilkuri      : MRCI spin determinant printing, contributions to CSF-ICE
   Dipayan Datta          : RHF DLPNO-CCSD density
   Achintya Kumar Dutta   : EOM-CC, STEOM-CC
   Dmitry Ganyushin       : Spin-Orbit,Spin-Spin,Magnetic field MRCI
   Miquel Garcia          : C-PCM Hessian, Gaussian charge scheme
   Yang Guo               : DLPNO-NEVPT2, CIM, IAO-localization
   Andreas Hansen         : Spin unrestricted coupled pair/coupled cluster methods
   Benjamin Helmich-Paris : CASSCF linear response (MC-RPA)
   Lee Huntington         : MR-EOM, pCC
   Robert Izsak           : Overlap fitted RIJCOSX, COSX-SCS-MP3, EOM
   Christian Kollmar      : KDIIS, OOCD, Brueckner-CCSD(T), CCSD density
   Simone Kossmann        : Meta GGA functionals, TD-DFT gradient, OOMP2, MP2 Hessian
   Martin Krupicka        : AUTO-CI
   Lucas Lang             : DCDCAS
   Dagmar Lenk            : GEPOL surface, SMD
   Dimitrios Liakos       : Extrapolation schemes; Compound Job, initial MDCI parallelization
   Dimitrios Manganas     : Further ROCIS development; embedding schemes
   Dimitrios Pantazis     : SARC Basis sets
   Taras Petrenko         : DFT Hessian,TD-DFT gradient, ASA, ECA, R-Raman, ABS, FL, XAS/XES, NRVS
   Peter Pinski           : DLPNO-MP2, DLPNO-MP2 Gradient
   Christoph Reimann      : Effective Core Potentials
   Marius Retegan         : Local ZFS, SOC
   Christoph Riplinger    : Optimizer, TS searches, QM/MM, DLPNO-CCSD(T), (RO)-DLPNO pert. Triples
   Tobias Risthaus        : Range-separated hybrids, TD-DFT gradient, RPA, STAB
   Michael Roemelt        : Original ROCIS implementation
   Masaaki Saitow         : Open-shell DLPNO-CCSD energy and density
   Barbara Sandhoefer     : DKH picture change effects
   Avijit Sen             : IP-ROCIS
   Kantharuban Sivalingam : CASSCF convergence, NEVPT2, FIC-MRCI
   Bernardo de Souza      : ESD, SOC TD-DFT
   Georgi Stoychev        : AutoAux, RI-MP2 NMR
   Willem Van den Heuvel  : Paramagnetic NMR
   Boris Wezisla          : Elementary symmetry handling
   Frank Wennmohs         : Technical directorship


 We gratefully acknowledge several colleagues who have allowed us to
 interface, adapt or use parts of their codes:
   Stefan Grimme, W. Hujo, H. Kruse,             : VdW corrections, initial TS optimization,
                  C. Bannwarth                     DFT functionals, gCP, sTDA/sTD-DF
   Ed Valeev, F. Pavosevic, A. Kumar             : LibInt (2-el integral package), F12 methods
   Garnet Chan, S. Sharma, J. Yang, R. Olivares  : DMRG
   Ulf Ekstrom                                   : XCFun DFT Library
   Mihaly Kallay                                 : mrcc  (arbitrary order and MRCC methods)
   Andreas Klamt, Michael Diedenhofen            : otool_cosmo (COSMO solvation model)
   Jiri Pittner, Ondrej Demel                    : Mk-CCSD
   Frank Weinhold                                : gennbo (NPA and NBO analysis)
   Christopher J. Cramer and Donald G. Truhlar   : smd solvation model
   Lars Goerigk                                  : TD-DFT with DH, B97 family of functionals
   V. Asgeirsson, H. Jonsson                     : NEB implementation
   FAccTs GmbH                                   : IRC, NEB, NEB-TS, Multilevel, MM, QM/MM, CI optimization
   S Lehtola, MJT Oliveira, MAL Marques          : LibXC Library


 Your calculation uses the libint2 library for the computation of 2-el integrals
 For citations please refer to: http://libint.valeyev.net

 Your ORCA version has been built with support for libXC version: 4.2.3
 For citations please refer to: https://tddft.org/programs/libxc/

 This ORCA versions uses:
   CBLAS   interface :  Fast vector & matrix operations
   LAPACKE interface :  Fast linear algebra routines
   SCALAPACK package :  Parallel linear algebra routines


SCAN-COORDS
----- Orbital basis set information -----
Your calculation utilizes the basis: def2-TZVP
   F. Weigend and R. Ahlrichs, Phys. Chem. Chem. Phys. 7, 3297 (2005).

================================================================================
                                        WARNINGS
                       Please study these warnings very carefully!
================================================================================


INFO   : the flag for use of LIBINT has been found!

================================================================================
                                       INPUT FILE
================================================================================
NAME = orca_atom.inp
|  1> ! UKS B3LYP def2-TZVP Grid4 TightSCF NOFINALGRID KeepDens
|  2> %output PrintLevel Mini Print[ P_Mulliken ] 1 Print[P_AtCharges_M] 1 end
|  3> %pal nprocs 4 end
|  4> %coords
|  5>     CTyp xyz
|  6>     Charge 0
|  7>     Mult 2
|  8>     Units Angs
|  9>     coords
| 10>         Br 0.0 0.0 0.0
| 11>     end
| 12> end
| 13> 
| 14>                          ****END OF INPUT****
================================================================================

                       ****************************
                       * Single Point Calculation *
                       ****************************

---------------------------------
CARTESIAN COORDINATES (ANGSTROEM)
---------------------------------
  Br     0.000000    0.000000    0.000000

----------------------------
CARTESIAN COORDINATES (A.U.)
----------------------------
  NO LB      ZA    FRAG     MASS         X           Y           Z
   0 Br   35.0000    0    79.900    0.000000    0.000000    0.000000


Checking for AutoStart:
The File: orca_atom.gbw exists
Trying to determine its content:
     ... Fine, the file contains calculation information
     ... Fine, the calculation information was read
     ... Fine, the file contains a basis set
     ... Fine, the basis set was read
     ... Fine, the file contains a geometry
     ... Fine, the geometry was read
     ... Fine, the file contains a set of orbitals
     ... Fine, the orbitals can be read
     => possible old guess file was deleted
     => GBW file was renamed to GES file
     => GES file is set as startup file
     => Guess is set to MORead
     ... now leaving AutoStart



           ************************************************************
           *        Program running with 4 parallel MPI-processes     *
           *              working on a common directory               *
           ************************************************************


           ************************************************************
           *        Program running with 4 parallel MPI-processes     *
           *              working on a common directory               *
           ************************************************************

Diagonalization of the overlap matrix:
Smallest eigenvalue                        ... 2.573e-02
Time for diagonalization                   ...    0.001 sec
Threshold for overlap eigenvalues          ... 1.000e-08
Number of eigenvalues below threshold      ... 0
Time for construction of square roots      ...    0.001 sec
Total time needed                          ...    0.001 sec

-------------------
DFT GRID GENERATION
-------------------

General Integration Accuracy     IntAcc      ...  4.670
Radial Grid Type                 RadialGrid  ... Gauss-Chebyshev
Angular Grid (max. acc.)         AngularGrid ... Lebedev-302
Angular grid pruning method      GridPruning ... 3 (G Style)
Weight generation scheme         WeightScheme... Becke
Basis function cutoff            BFCut       ...    1.0000e-11
Integration weight cutoff        WCut        ...    1.0000e-14
Grids for H and He will be reduced by one unit

# of grid points (after initial pruning)     ...   9616 (   0.0 sec)
# of grid points (after weights+screening)   ...   9616 (   0.0 sec)
Grid point division into batches done        ...    0.1 sec
Reduced shell lists constructed in    0.1 sec

Total number of grid points                  ...     9616
Total number of batches                      ...      151
Average number of points per batch           ...       63
Average number of grid points per atom       ...     9616
Average number of shells per batch           ...     6.13 (38.30%)
Average number of basis functions per batch  ...    21.26 (44.28%)
Average number of large shells per batch     ...     5.13 (83.68%)
Average number of large basis fcns per batch ...    17.74 (83.47%)
Maximum spatial batch extension              ...  23.55, 20.85, 16.71 au
Average spatial batch extension              ...   2.67,  2.53,  2.28 au

Time for grid setup =    0.106 sec

--------------
SCF ITERATIONS
--------------
ITER       Energy         Delta-E        Max-DP      RMS-DP      [F,P]     Damp
               ***  Starting incremental Fock matrix formation  ***
  0  -2574.0014201316   0.000000000000 0.00000019  0.00000001  0.0000004 0.7000
                 **** Energy Check signals convergence ****

               *****************************************************
               *                     SUCCESS                       *
               *           SCF CONVERGED AFTER   1 CYCLES          *
               *****************************************************

Total Energy       :        -2574.00142013 Eh          -70042.13952 eV
  Last Energy change         ...    3.8972e-10  Tolerance :   1.0000e-08
  Last MAX-Density change    ...    9.0927e-08  Tolerance :   1.0000e-07
             **** THE GBW FILE WAS UPDATED (orca_atom.gbw) ****
             **** DENSITY FILE WAS UPDATED (orca_atom.scfp) ****
             **** ENERGY FILE WAS UPDATED (orca_atom.en.tmp) ****
----------------------
UHF SPIN CONTAMINATION
----------------------

Warning: in a DFT calculation there is little theoretical justification to 
         calculate <S**2> as in Hartree-Fock theory. We will do it anyways
         but you should keep in mind that the values have only limited relevance

Expectation value of <S**2>     :     0.752294
Ideal value S*(S+1) for S=0.5   :     0.750000
Deviation                       :     0.002294

             **** THE GBW FILE WAS UPDATED (orca_atom.gbw) ****
             **** DENSITY FILE WAS UPDATED (orca_atom.scfp) ****
----------------
ORBITAL ENERGIES
----------------
                 SPIN UP ORBITALS
  NO   OCC          E(Eh)            E(eV) 
   0   1.0000    -482.891449    -13140.1444 
   1   1.0000     -62.538650     -1701.7632 
   2   1.0000     -56.358309     -1533.5876 
   3   1.0000     -56.350583     -1533.3773 
   4   1.0000     -56.350583     -1533.3773 
   5   1.0000      -8.729979      -237.5548 
   6   1.0000      -6.566694      -178.6888 
   7   1.0000      -6.545309      -178.1069 
   8   1.0000      -6.545309      -178.1069 
   9   1.0000      -2.678351       -72.8816 
  10   1.0000      -2.673100       -72.7387 
  11   1.0000      -2.673100       -72.7387 
  12   1.0000      -2.657336       -72.3098 
  13   1.0000      -2.657336       -72.3098 
  14   1.0000      -0.794368       -21.6158 
  15   1.0000      -0.370476       -10.0812 
  16   1.0000      -0.322586        -8.7780 
  17   1.0000      -0.322586        -8.7780 
  18   0.0000       0.222090         6.0434 
  19   0.0000       0.240149         6.5348 
  20   0.0000       0.240149         6.5348 
  21   0.0000       0.261511         7.1161 
  22   0.0000       0.269426         7.3315 
  23   0.0000       0.269426         7.3315 
  24   0.0000       0.294742         8.0203 
  25   0.0000       0.294742         8.0203 
  26   0.0000       0.453133        12.3304 
  27   0.0000       1.271267        34.5929 
  28   0.0000       1.280307        34.8389 
  29   0.0000       1.280307        34.8389 
  30   0.0000       1.310564        35.6623 
  31   0.0000       1.310564        35.6623 
  32   0.0000       1.456839        39.6426 
  33   0.0000       1.462628        39.8001 
  34   0.0000       1.462628        39.8001 
  35   0.0000       1.479588        40.2616 
  36   0.0000       1.479588        40.2616 
  37   0.0000       1.508853        41.0580 
  38   0.0000       1.508853        41.0580 
  39   0.0000       1.511703        41.1355 
  40   0.0000       1.547658        42.1139 
  41   0.0000       1.547658        42.1139 
  42   0.0000       3.909063       106.3710 
  43   0.0000       3.918129       106.6177 
  44   0.0000       3.918129       106.6177 
  45   0.0000       3.946061       107.3778 
  46   0.0000       3.946061       107.3778 
  47   0.0000       6.865493       186.8196 

                 SPIN DOWN ORBITALS
  NO   OCC          E(Eh)            E(eV) 
   0   1.0000    -482.888880    -13140.0745 
   1   1.0000     -62.537202     -1701.7238 
   2   1.0000     -56.352533     -1533.4304 
   3   1.0000     -56.349543     -1533.3490 
   4   1.0000     -56.349543     -1533.3490 
   5   1.0000      -8.726010      -237.4468 
   6   1.0000      -6.555595      -178.3868 
   7   1.0000      -6.543609      -178.0607 
   8   1.0000      -6.543609      -178.0607 
   9   1.0000      -2.670401       -72.6653 
  10   1.0000      -2.667024       -72.5734 
  11   1.0000      -2.667024       -72.5734 
  12   1.0000      -2.656477       -72.2864 
  13   1.0000      -2.656477       -72.2864 
  14   1.0000      -0.750757       -20.4291 
  15   1.0000      -0.309418        -8.4197 
  16   1.0000      -0.309418        -8.4197 
  17   0.0000      -0.232161        -6.3174 
  18   0.0000       0.243281         6.6200 
  19   0.0000       0.243281         6.6200 
  20   0.0000       0.245256         6.6737 
  21   0.0000       0.297941         8.1074 
  22   0.0000       0.297941         8.1074 
  23   0.0000       0.299901         8.1607 
  24   0.0000       0.299901         8.1607 
  25   0.0000       0.304350         8.2818 
  26   0.0000       0.469076        12.7642 
  27   0.0000       1.313550        35.7435 
  28   0.0000       1.313550        35.7435 
  29   0.0000       1.314974        35.7823 
  30   0.0000       1.314974        35.7823 
  31   0.0000       1.316408        35.8213 
  32   0.0000       1.508732        41.0547 
  33   0.0000       1.508732        41.0547 
  34   0.0000       1.510124        41.0926 
  35   0.0000       1.510124        41.0926 
  36   0.0000       1.511065        41.1182 
  37   0.0000       1.511065        41.1182 
  38   0.0000       1.511949        41.1422 
  39   0.0000       1.550441        42.1896 
  40   0.0000       1.554436        42.2983 
  41   0.0000       1.554436        42.2983 
  42   0.0000       3.938156       107.1627 
  43   0.0000       3.939383       107.1961 
  44   0.0000       3.939383       107.1961 
  45   0.0000       3.949063       107.4595 
  46   0.0000       3.949063       107.4595 
  47   0.0000       6.877087       187.1350 

                    ********************************
                    * MULLIKEN POPULATION ANALYSIS *
                    ********************************

--------------------------------------------
MULLIKEN ATOMIC CHARGES AND SPIN POPULATIONS
--------------------------------------------
   0 Br:    0.000000    1.000000
Sum of atomic charges         :    0.0000000
Sum of atomic spin populations:    1.0000000

Total SCF time: 0 days 0 hours 0 min 0 sec 

-------------------------   --------------------
FINAL SINGLE POINT ENERGY     -2574.001420131178
-------------------------   --------------------


                            ***************************************
                            *     ORCA property calculations      *
                            ***************************************

                                    ---------------------
                                    Active property flags
                                    ---------------------
   (+) Dipole Moment


------------------------------------------------------------------------------
                       ORCA ELECTRIC PROPERTIES CALCULATION
------------------------------------------------------------------------------

Dipole Moment Calculation                       ... on
Quadrupole Moment Calculation                   ... off
Polarizability Calculation                      ... off
GBWName                                         ... orca_atom.gbw
Electron density file                           ... orca_atom.scfp
The origin for moment calculation is the CENTER OF MASS  = ( 0.000000,  0.000000  0.000000)

-------------
DIPOLE MOMENT
-------------
                                X             Y             Z
Electronic contribution:      0.00000      -0.00000       0.00000
Nuclear contribution   :      0.00000       0.00000       0.00000
                        -----------------------------------------
Total Dipole Moment    :      0.00000      -0.00000       0.00000
                        -----------------------------------------
Magnitude (a.u.)       :      0.00000
Magnitude (Debye)      :      0.00000



--------------------
Rotational spectrum 
--------------------
 
Rotational constants in cm-1:     0.000000     0.000000     0.000000 
Rotational constants in MHz :     0.000000     0.000000     0.000000 

 Dipole components along the rotational axes: 
x,y,z [a.u.] :     0.000000    -0.000000     0.000000 
x,y,z [Debye]:     0.000000    -0.000000     0.000000 

 

Timings for individual modules:

Sum of individual times         ...        1.505 sec (=   0.025 min)
GTO integral calculation        ...        0.606 sec (=   0.010 min)  40.2 %
SCF iterations                  ...        0.899 sec (=   0.015 min)  59.8 %
                             ****ORCA TERMINATED NORMALLY****
TOTAL RUN TIME: 0 days 0 hours 0 minutes 1 seconds 919 msec
