[Molden Format]
[Title]
 Molden file created by orca_2mkl for BaseName=orca_atom

[Atoms] AU
Cl   1  17          0.0000000000         0.0000000000         0.0000000000 
[GTO]
  1 0
s   7 1.0 
    69507.9909450000         1.5699431111
    10426.1568800000         2.9253830754
     2373.2334061000         4.9572399459
      671.5642007100         7.5356200335
      218.4199979000         9.4975278458
       77.5722497140         8.2979906229
       28.8888152770         3.1497777986
s   3 1.0 
      127.1052718500         3.0469726290
       39.3395829610         5.4155185167
        7.6740679989        -4.0393583511
s   2 1.0 
        3.8745627630         1.3245601070
        1.8385832573         0.3933642951
s   1 1.0 
        0.5022905754         0.4252324164
s   1 1.0 
        0.1796272342         0.1966478622
p   5 1.0 
      666.5042328400        16.1722725881
      157.6424169000        21.3099281439
       50.2625209780        23.5834931812
       18.5360781050        19.6517184011
        7.2940532777        10.5384461303
p   1 1.0 
        2.9433248995         5.4952549157
p   1 1.0 
        1.0404970818         1.4979288007
p   1 1.0 
        0.3845641508         0.4316692212
p   1 1.0 
        0.1306964273         0.1120133363
d   2 1.0 
        4.6100000000         7.5524217504
        1.0110000000         2.6539585854
d   1 1.0 
        0.3390000000         0.4293579962
f   1 1.0 
        0.7060000000         2.6050175686

[5D]
[7F]
[9G]
[MO]
 Sym=     1a
 Ene= -1.01571637529787E+02
 Spin= Alpha
 Occup= 1.000000
  1      -1.000169049326
  2       0.032243770138
  3       0.010098233927
  4      -0.002825389647
  5       0.001171039527
  6      -0.000000000000
  7      -0.000000000000
  8       0.000000000000
  9       0.000000000000
 10       0.000000000000
 11       0.000000000000
 12      -0.000000000000
 13      -0.000000000000
 14      -0.000000000000
 15       0.000000000000
 16       0.000000000000
 17       0.000000000000
 18      -0.000000000000
 19      -0.000000000000
 20      -0.000000000000
 21       0.000001764812
 22       0.000000051428
 23      -0.000000026414
 24      -0.000001780993
 25       0.000002484974
 26      -0.000000944002
 27      -0.000000027509
 28       0.000000014129
 29       0.000000952658
 30      -0.000001329218
 31       0.000000000000
 32       0.000000000000
 33      -0.000000000000
 34      -0.000000000000
 35       0.000000000000
 36      -0.000000000000
 37      -0.000000000000
 Sym=     1a
 Ene= -9.50020309088129E+00
 Spin= Alpha
 Occup= 1.000000
  1      -0.293167561003
  2      -0.216630711848
  3       0.830390419974
  4       0.028928250387
  5      -0.007609588058
  6       0.000000000000
  7      -0.000000000000
  8       0.000000000000
  9      -0.000000000000
 10      -0.000000000000
 11      -0.000000000000
 12       0.000000000000
 13       0.000000000000
 14       0.000000000000
 15      -0.000000000000
 16      -0.000000000000
 17      -0.000000000000
 18       0.000000000000
 19       0.000000000000
 20       0.000000000000
 21      -0.000730627547
 22      -0.000021291027
 23       0.000010935317
 24       0.000737326270
 25      -0.001028772385
 26       0.000233245748
 27       0.000006796951
 28      -0.000003490994
 29      -0.000235384238
 30       0.000328425600
 31       0.000000000000
 32       0.000000000000
 33       0.000000000000
 34      -0.000000000000
 35      -0.000000000000
 36       0.000000000000
 37       0.000000000000
 Sym=     1a
 Ene= -7.27329437341110E+00
 Spin= Alpha
 Occup= 1.000000
  1       0.000000000000
  2      -0.000000000000
  3      -0.000000000000
  4       0.000000000000
  5      -0.000000000000
  6       0.630041945267
  7      -0.323593555972
  8      -0.006696967176
  9       0.306184005335
 10      -0.157258055506
 11      -0.003254551908
 12       0.066685298144
 13      -0.034249993776
 14      -0.000708824649
 15      -0.009000070599
 16       0.004622493549
 17       0.000095665345
 18       0.002736561084
 19      -0.001405515194
 20      -0.000029088001
 21      -0.000000000000
 22      -0.000000000000
 23       0.000000000000
 24      -0.000000000000
 25      -0.000000000000
 26       0.000000000000
 27       0.000000000000
 28      -0.000000000000
 29      -0.000000000000
 30       0.000000000000
 31       0.000006624004
 32      -0.000254335369
 33       0.000130628262
 34      -0.000004981896
 35       0.000006951149
 36      -0.000054222368
 37       0.000365250334
 Sym=     1a
 Ene= -7.25038523152279E+00
 Spin= Alpha
 Occup= 1.000000
  1      -0.000000000000
  2      -0.000000000000
  3       0.000000000000
  4      -0.000000000000
  5      -0.000000000000
  6       0.222378058654
  7       0.422124452157
  8       0.524230141864
  9       0.108035625423
 10       0.205076343954
 11       0.254681291962
 12       0.023111063545
 13       0.043870088069
 14       0.054481616455
 15      -0.003112747971
 16      -0.005908708042
 17      -0.007337937532
 18       0.000943698928
 19       0.001791356544
 20       0.002224659321
 21       0.000000000000
 22      -0.000000000000
 23      -0.000000000000
 24       0.000000000000
 25      -0.000000000000
 26       0.000000000000
 27      -0.000000000000
 28       0.000000000000
 29      -0.000000000000
 30       0.000000000000
 31      -0.000172082544
 32      -0.000035711860
 33      -0.000053533286
 34       0.000126329994
 35      -0.000182830542
 36      -0.000245401799
 37      -0.000033828781
 Sym=     1a
 Ene= -7.25038522961339E+00
 Spin= Alpha
 Occup= 1.000000
  1       0.000000000000
  2       0.000000000000
  3      -0.000000000000
  4       0.000000000000
  5      -0.000000000000
  6      -0.235503248785
  7      -0.468401940289
  8       0.477070369972
  9      -0.114412100348
 10      -0.227558856003
 11       0.231770149172
 12      -0.024475123929
 13      -0.048679564134
 14       0.049580447230
 15       0.003296468474
 16       0.006556479470
 17      -0.006677816261
 18      -0.000999397893
 19      -0.001987742891
 20       0.002024528843
 21      -0.000000000000
 22       0.000000000000
 23      -0.000000000000
 24      -0.000000000000
 25       0.000000000000
 26      -0.000000000000
 27      -0.000000000000
 28       0.000000000000
 29       0.000000000000
 30      -0.000000000000
 31      -0.000156601966
 32       0.000026180834
 33       0.000065533588
 34       0.000121210455
 35      -0.000161907227
 36       0.000268901289
 37       0.000042286802
 Sym=     1a
 Ene= -8.44217562587833E-01
 Spin= Alpha
 Occup= 1.000000
  1       0.091975748080
  2       0.081909542155
  3      -0.525758510138
  4       0.737495288353
  5       0.468227155809
  6       0.000000000000
  7       0.000000000001
  8      -0.000000000000
  9       0.000000000000
 10       0.000000000001
 11       0.000000000000
 12      -0.000000000001
 13      -0.000000000003
 14      -0.000000000002
 15      -0.000000000002
 16      -0.000000000002
 17       0.000000000004
 18       0.000000000001
 19      -0.000000000000
 20      -0.000000000004
 21      -0.009485755361
 22      -0.000276422714
 23       0.000141973715
 24       0.009572728935
 25      -0.013356574396
 26      -0.010896093836
 27      -0.000317520790
 28       0.000163081366
 29       0.010995993957
 30      -0.015342428141
 31       0.000000000000
 32       0.000000000000
 33       0.000000000000
 34      -0.000000000000
 35      -0.000000000000
 36       0.000000000000
 37       0.000000000000
 Sym=     1a
 Ene= -4.07055330735226E-01
 Spin= Alpha
 Occup= 1.000000
  1      -0.000000000000
  2      -0.000000000000
  3       0.000000000001
  4      -0.000000000002
  5       0.000000000001
  6      -0.194855415696
  7       0.100078996140
  8       0.002071194570
  9      -0.091396966006
 10       0.046942069630
 11       0.000971494231
 12       0.244609776510
 13      -0.125633153606
 14      -0.002600053474
 15       0.513034777530
 16      -0.263497962551
 17      -0.005453248070
 18       0.282890260694
 19      -0.145294278895
 20      -0.003006948814
 21       0.000000000001
 22      -0.000000000000
 23       0.000000000000
 24      -0.000000000002
 25      -0.000000000000
 26      -0.000000000000
 27       0.000000000000
 28      -0.000000000000
 29       0.000000000000
 30      -0.000000000000
 31       0.000217947981
 32      -0.008368340402
 33       0.004298033340
 34      -0.000163918259
 35       0.000228711842
 36      -0.001784064723
 37       0.012017751408
 Sym=     1a
 Ene= -3.52032836434242E-01
 Spin= Alpha
 Occup= 1.000000
  1      -0.000000000000
  2       0.000000000000
  3       0.000000000001
  4      -0.000000000007
  5       0.000000000010
  6      -0.071804945564
  7      -0.136695004996
  8      -0.150291527248
  9      -0.033279457941
 10      -0.063354070929
 11      -0.069655654943
 12       0.090822051390
 13       0.172897847613
 14       0.190095327046
 15       0.182740666129
 16       0.347883224268
 17       0.382485820863
 18       0.117868848517
 19       0.224386839156
 20       0.246705722161
 21       0.000000000000
 22      -0.000000000001
 23      -0.000000000000
 24      -0.000000000000
 25      -0.000000000000
 26       0.000000000000
 27      -0.000000000000
 28       0.000000000000
 29       0.000000000000
 30      -0.000000000000
 31      -0.005441656775
 32      -0.001248305775
 33      -0.001924567656
 34       0.003982186681
 35      -0.005790612208
 36      -0.008758496233
 37      -0.001217946666
 Sym=     1a
 Ene= -3.52032833754002E-01
 Spin= Alpha
 Occup= 1.000000
  1       0.000000000000
  2       0.000000000000
  3      -0.000000000000
  4      -0.000000000001
  5       0.000000000004
  6      -0.067368217824
  7      -0.134362259195
  8       0.154393406789
  9      -0.031223166552
 10      -0.062272912439
 11       0.071556754038
 12       0.085210283448
 13       0.169947287766
 14      -0.195283564235
 15       0.171449374882
 16       0.341946480195
 17      -0.392924936701
 18       0.110585893321
 19       0.220557607818
 20      -0.253439019914
 21       0.000000000001
 22       0.000000000000
 23       0.000000000000
 24      -0.000000000000
 25      -0.000000000000
 26      -0.000000000000
 27       0.000000000000
 28      -0.000000000000
 29       0.000000000000
 30      -0.000000000000
 31       0.005590174392
 32      -0.000803793002
 33      -0.002084708287
 34      -0.004312895126
 35       0.005789529992
 36      -0.008501893597
 37      -0.001346646146
 Sym=     1a
 Ene= 3.10594540349837E-01
 Spin= Alpha
 Occup= 0.000000
  1       0.000000000002
  2       0.000000000001
  3      -0.000000000012
  4       0.000000000041
  5      -0.000000000037
  6      -0.141003391629
  7       0.072420268496
  8       0.001498777962
  9      -0.030476090636
 10       0.015652721045
 11       0.000323941726
 12       0.061515970994
 13      -0.031595008824
 14      -0.000653876119
 15       0.961021401564
 16      -0.493586893723
 17      -0.010215058788
 18      -1.220328765102
 19       0.626768837056
 20       0.012971337049
 21      -0.000000000010
 22      -0.000000000004
 23       0.000000000001
 24       0.000000000015
 25      -0.000000000004
 26      -0.000000000012
 27      -0.000000000015
 28       0.000000000004
 29       0.000000000018
 30      -0.000000000007
 31       0.000103386003
 32      -0.003969612811
 33       0.002038818461
 34      -0.000077756302
 35       0.000108492038
 36      -0.000846290907
 37       0.005700750232
 Sym=     1a
 Ene= 3.33852769729035E-01
 Spin= Alpha
 Occup= 0.000000
  1      -0.000000000006
  2      -0.000000000003
  3       0.000000000038
  4      -0.000000000125
  5       0.000000000107
  6      -0.045481079511
  7      -0.085842173081
  8      -0.130955813054
  9      -0.009095090958
 10      -0.017166311858
 11      -0.026187924041
 12       0.017587674584
 13       0.033195436028
 14       0.050641020686
 15       0.308948993436
 16       0.583118360764
 17       0.889571367421
 18      -0.381533803905
 19      -0.720116803749
 20      -1.098568206810
 21      -0.000000000005
 22      -0.000000000002
 23      -0.000000000003
 24       0.000000000007
 25      -0.000000000003
 26      -0.000000000013
 27      -0.000000000007
 28      -0.000000000009
 29       0.000000000014
 30      -0.000000000010
 31      -0.003191971320
 32      -0.000562214580
 33      -0.000797886699
 34       0.002353969016
 35      -0.003383693177
 36      -0.003711402598
 37      -0.000502707170
 Sym=     1a
 Ene= 3.33852770357077E-01
 Spin= Alpha
 Occup= 0.000000
  1      -0.000000000001
  2      -0.000000000000
  3       0.000000000005
  4      -0.000000000019
  5       0.000000000018
  6      -0.059015510910
  7      -0.116914375450
  8       0.097134086140
  9      -0.011801642328
 10      -0.023379983942
 11       0.019424415016
 12       0.022821480797
 13       0.045211153423
 14      -0.037562053326
 15       0.400887203534
 16       0.794189107307
 17      -0.659823338487
 18      -0.495072078813
 19      -0.980776729616
 20       0.814842930391
 21      -0.000000000005
 22      -0.000000000002
 23       0.000000000001
 24       0.000000000014
 25      -0.000000000003
 26      -0.000000000008
 27      -0.000000000007
 28       0.000000000002
 29       0.000000000029
 30      -0.000000000007
 31       0.002367586159
 32      -0.000505928750
 33      -0.001205161658
 34      -0.001844238998
 35       0.002439394667
 36      -0.004989049105
 37      -0.000776433257
 Sym=     1a
 Ene= 3.62899638442478E-01
 Spin= Alpha
 Occup= 0.000000
  1      -0.004157848332
  2      -0.004328040554
  3       0.025712203852
  4      -0.055140608246
  5       0.008957794490
  6       0.000000000008
  7       0.000000000004
  8       0.000000000000
  9       0.000000000002
 10       0.000000000001
 11       0.000000000000
 12      -0.000000000004
 13      -0.000000000001
 14       0.000000000000
 15      -0.000000000049
 16      -0.000000000026
 17      -0.000000000003
 18       0.000000000063
 19       0.000000000031
 20       0.000000000003
 21      -0.145252627257
 22      -0.004232768677
 23       0.002173970885
 24       0.146584310822
 25      -0.204525444214
 26      -0.402046377849
 27      -0.011715925912
 28       0.006017359780
 29       0.405732352213
 30      -0.566108278561
 31      -0.000000000000
 32       0.000000000000
 33       0.000000000000
 34       0.000000000000
 35      -0.000000000000
 36       0.000000000001
 37       0.000000000000
 Sym=     1a
 Ene= 3.73656981221065E-01
 Spin= Alpha
 Occup= 0.000000
  1      -0.000000004500
  2      -0.000000002106
  3       0.000000030307
  4      -0.000000110596
  5       0.000000105304
  6      -0.000000000001
  7      -0.000000000002
  8       0.000000000001
  9      -0.000000000001
 10      -0.000000000000
 11       0.000000000000
 12       0.000000000002
 13       0.000000000001
 14      -0.000000000000
 15       0.000000000007
 16       0.000000000013
 17      -0.000000000005
 18      -0.000000000011
 19      -0.000000000016
 20       0.000000000005
 21       0.003127966085
 22      -0.168946072835
 23       0.089080560539
 24      -0.177596882168
 25      -0.125062640964
 26       0.008716770814
 27      -0.470806577741
 28       0.248243210075
 29      -0.494914023190
 30      -0.348515440350
 31       0.000000000000
 32      -0.000000000000
 33       0.000000000000
 34       0.000000000000
 35       0.000000000000
 36       0.000000000000
 37      -0.000000000000
 Sym=     1a
 Ene= 3.73656982831792E-01
 Spin= Alpha
 Occup= 0.000000
  1      -0.000000005092
  2      -0.000000002329
  3       0.000000034380
  4      -0.000000126691
  5       0.000000121922
  6      -0.000000000005
  7      -0.000000000002
  8       0.000000000001
  9      -0.000000000001
 10      -0.000000000000
 11       0.000000000000
 12       0.000000000003
 13       0.000000000001
 14      -0.000000000001
 15       0.000000000033
 16       0.000000000011
 17      -0.000000000008
 18      -0.000000000044
 19      -0.000000000013
 20       0.000000000010
 21      -0.003556968560
 22       0.194010392423
 23      -0.097614715280
 24      -0.154054693441
 25      -0.112938285489
 26      -0.009912314218
 27       0.540653994316
 28      -0.272025574533
 29      -0.429308370948
 30      -0.314728176537
 31      -0.000000000000
 32       0.000000000000
 33       0.000000000000
 34      -0.000000000000
 35      -0.000000000000
 36      -0.000000000000
 37      -0.000000000000
 Sym=     1a
 Ene= 4.10734052763159E-01
 Spin= Alpha
 Occup= 0.000000
  1       0.000000000866
  2       0.000000000351
  3      -0.000000005833
  4       0.000000021724
  5      -0.000000021321
  6      -0.000000000001
  7      -0.000000000001
  8      -0.000000000002
  9      -0.000000000000
 10      -0.000000000000
 11      -0.000000000000
 12       0.000000000000
 13       0.000000000000
 14       0.000000000001
 15       0.000000000007
 16       0.000000000008
 17       0.000000000010
 18      -0.000000000009
 19      -0.000000000009
 20      -0.000000000012
 21      -0.023207770470
 22       0.128096377799
 23       0.249960251497
 24      -0.005648290465
 25       0.012439738706
 26      -0.066749511458
 27       0.368427043658
 28       0.718928377872
 29      -0.016245446968
 30       0.035778812685
 31       0.000000000000
 32       0.000000000000
 33       0.000000000000
 34       0.000000000000
 35      -0.000000000000
 36      -0.000000000000
 37      -0.000000000000
 Sym=     1a
 Ene= 4.10734052869132E-01
 Spin= Alpha
 Occup= 0.000000
  1       0.000000000041
  2       0.000000000011
  3      -0.000000000281
  4       0.000000001097
  5      -0.000000001137
  6      -0.000000000001
  7       0.000000000001
  8      -0.000000000001
  9      -0.000000000000
 10       0.000000000000
 11      -0.000000000000
 12       0.000000000001
 13      -0.000000000000
 14       0.000000000000
 15       0.000000000003
 16      -0.000000000004
 17       0.000000000007
 18      -0.000000000005
 19       0.000000000004
 20      -0.000000000009
 21       0.243230897780
 22       0.014605985010
 23       0.022625548808
 24       0.082026241718
 25      -0.114014192068
 26       0.699573599912
 27       0.042009307759
 28       0.065074941822
 29       0.235921492617
 30      -0.327924277752
 31       0.000000000000
 32      -0.000000000000
 33      -0.000000000000
 34       0.000000000000
 35      -0.000000000000
 36       0.000000000000
 37       0.000000000000
 Sym=     1a
 Ene= 4.84416925876534E-01
 Spin= Alpha
 Occup= 0.000000
  1      -0.093865095448
  2      -0.053244955399
  3       0.623182248358
  4      -2.127460962883
  5       1.861064755158
  6       0.000000000001
  7       0.000000000009
  8       0.000000000008
  9       0.000000000000
 10       0.000000000003
 11       0.000000000003
 12      -0.000000000000
 13      -0.000000000007
 14      -0.000000000008
 15      -0.000000000004
 16      -0.000000000049
 17      -0.000000000043
 18       0.000000000001
 19       0.000000000060
 20       0.000000000054
 21       0.015632849212
 22       0.000455550852
 23      -0.000233971498
 24      -0.015776152530
 25       0.022012114656
 26      -0.004976009431
 27      -0.000145008654
 28       0.000074487556
 29       0.005021683625
 30      -0.007006515751
 31       0.000000000000
 32      -0.000000000002
 33       0.000000000000
 34      -0.000000000000
 35       0.000000000000
 36      -0.000000000002
 37       0.000000000000
 Sym=     1a
 Ene= 1.65281171247897E+00
 Spin= Alpha
 Occup= 0.000000
  1       0.002500704937
  2       0.001683704042
  3      -0.017207027086
  4       0.054397358974
  5      -0.039423340591
  6      -0.000000000003
  7       0.000000000000
  8      -0.000000000000
  9      -0.000000000003
 10       0.000000000001
 11      -0.000000000000
 12       0.000000000015
 13      -0.000000000003
 14       0.000000000001
 15      -0.000000000010
 16       0.000000000003
 17      -0.000000000000
 18      -0.000000000002
 19      -0.000000000001
 20       0.000000000000
 21       0.591362459302
 22       0.017232752661
 23      -0.008850823793
 24      -0.596784157698
 25       0.832677980682
 26      -0.457556494171
 27      -0.013333545366
 28       0.006848171817
 29       0.461751441563
 30      -0.644270211704
 31       0.000000000000
 32      -0.000000000000
 33       0.000000000000
 34       0.000000000000
 35       0.000000000001
 36       0.000000000000
 37      -0.000000000000
 Sym=     1a
 Ene= 1.66261987732869E+00
 Spin= Alpha
 Occup= 0.000000
  1      -0.000000000144
  2      -0.000000000075
  3       0.000000000815
  4       0.000000000111
  5      -0.000000003258
  6       0.000000000003
  7      -0.000000000000
  8       0.000000000000
  9       0.000000000004
 10      -0.000000000000
 11       0.000000000000
 12      -0.000000000017
 13       0.000000000002
 14      -0.000000000001
 15       0.000000000013
 16      -0.000000000003
 17       0.000000000001
 18      -0.000000000001
 19       0.000000000001
 20       0.000000000000
 21      -0.013263063989
 22       0.716607181637
 23      -0.377232589254
 24       0.706316394264
 25       0.496799230476
 26       0.010240408965
 27      -0.553292075790
 28       0.291261106459
 29      -0.545346562523
 30      -0.383578457209
 31      -0.000000000000
 32       0.000000000000
 33       0.000000000000
 34       0.000000000000
 35       0.000000000000
 36       0.000000000000
 37       0.000000000002
 Sym=     1a
 Ene= 1.66261987901300E+00
 Spin= Alpha
 Occup= 0.000000
  1      -0.000000000216
  2      -0.000000000123
  3       0.000000001265
  4      -0.000000000632
  5      -0.000000003514
  6       0.000000000002
  7      -0.000000000000
  8       0.000000000000
  9       0.000000000002
 10      -0.000000000000
 11       0.000000000000
 12      -0.000000000011
 13       0.000000000001
 14      -0.000000000000
 15       0.000000000009
 16      -0.000000000002
 17       0.000000000000
 18      -0.000000000001
 19       0.000000000001
 20      -0.000000000000
 21       0.014140791859
 22      -0.771508442898
 23       0.387643001547
 24       0.653533551116
 25       0.478435026372
 26      -0.010918096100
 27       0.595681314074
 28      -0.299298979887
 29      -0.504592953393
 30      -0.369399462611
 31       0.000000000000
 32      -0.000000000001
 33      -0.000000000000
 34       0.000000000000
 35       0.000000000002
 36      -0.000000000000
 37       0.000000000001
 Sym=     1a
 Ene= 1.69487310748554E+00
 Spin= Alpha
 Occup= 0.000000
  1       0.000000000164
  2       0.000000000094
  3      -0.000000001116
  4       0.000000003163
  5      -0.000000001845
  6      -0.000000000000
  7      -0.000000000000
  8      -0.000000000001
  9      -0.000000000000
 10      -0.000000000000
 11      -0.000000000001
 12       0.000000000002
 13       0.000000000001
 14       0.000000000004
 15      -0.000000000002
 16      -0.000000000001
 17      -0.000000000005
 18       0.000000000000
 19      -0.000000000000
 20       0.000000000002
 21       0.081785774054
 22      -0.539145935646
 23      -1.051680143011
 24       0.018429286642
 25      -0.044896103740
 26      -0.062721430525
 27       0.413470497482
 28       0.806532478546
 29      -0.014133402382
 30       0.034430778508
 31      -0.000000000000
 32      -0.000000000001
 33       0.000000000000
 34      -0.000000000001
 35       0.000000000001
 36      -0.000000000000
 37       0.000000000001
 Sym=     1a
 Ene= 1.69487310756657E+00
 Spin= Alpha
 Occup= 0.000000
  1      -0.000000000006
  2      -0.000000000009
  3       0.000000000043
  4      -0.000000000131
  5       0.000000000076
  6      -0.000000000001
  7      -0.000000000000
  8       0.000000000000
  9      -0.000000000001
 10      -0.000000000001
 11       0.000000000000
 12       0.000000000006
 13       0.000000000003
 14      -0.000000000001
 15      -0.000000000005
 16      -0.000000000003
 17       0.000000000001
 18       0.000000000001
 19       0.000000000002
 20       0.000000000000
 21       1.023444115019
 22       0.053087395717
 23       0.078904554617
 24       0.345001554539
 25      -0.479839082600
 26      -0.784878297706
 27      -0.040712672051
 28      -0.060511826411
 29      -0.264581354194
 30       0.367988128382
 31      -0.000000000000
 32       0.000000000000
 33      -0.000000000001
 34       0.000000000000
 35      -0.000000000001
 36       0.000000000000
 37       0.000000000001
 Sym=     1a
 Ene= 2.00603525708147E+00
 Spin= Alpha
 Occup= 0.000000
  1      -0.000000000000
  2      -0.000000000000
  3       0.000000000001
  4      -0.000000000002
  5       0.000000000002
  6      -0.024984935971
  7       0.012832419745
  8       0.000265574838
  9      -0.024363490625
 10       0.012513238961
 11       0.000258969590
 12       0.132502936070
 13      -0.068054327710
 14      -0.001408427974
 15      -0.115284974150
 16       0.059211067584
 17       0.001225412354
 18       0.044357562342
 19      -0.022782315302
 20      -0.000471495109
 21      -0.000000000000
 22      -0.000000000001
 23      -0.000000000002
 24       0.000000000003
 25       0.000000000001
 26       0.000000000000
 27       0.000000000001
 28       0.000000000001
 29      -0.000000000001
 30      -0.000000000001
 31      -0.014142178384
 32       0.543004528440
 33      -0.278890659391
 34       0.010636371863
 35      -0.014840576261
 36       0.115764183387
 37      -0.779807420572
 Sym=     1a
 Ene= 2.01279058694923E+00
 Spin= Alpha
 Occup= 0.000000
  1      -0.000000000000
  2      -0.000000000000
  3       0.000000000001
  4      -0.000000000004
  5       0.000000000003
  6      -0.006152230565
  7      -0.011722749044
  8      -0.012358168683
  9      -0.005515631767
 10      -0.010509751723
 11      -0.011079420338
 12       0.030482895176
 13       0.058083573829
 14       0.061231927220
 15      -0.024748048442
 16      -0.047156149506
 17      -0.049712188221
 18       0.009546538945
 19       0.018190445346
 20       0.019176435108
 21      -0.000000000000
 22       0.000000000000
 23       0.000000000001
 24       0.000000000000
 25      -0.000000000001
 26       0.000000000000
 27      -0.000000000000
 28      -0.000000000000
 29      -0.000000000000
 30       0.000000000001
 31       0.417257368056
 32       0.099134567403
 33       0.154224794749
 34      -0.304983965816
 35       0.444275391283
 36       0.700246125668
 37       0.097644531149
 Sym=     1a
 Ene= 2.01279058907325E+00
 Spin= Alpha
 Occup= 0.000000
  1      -0.000000000000
  2      -0.000000000000
  3       0.000000000001
  4      -0.000000000003
  5       0.000000000003
  6      -0.005534981121
  7      -0.011050684929
  8       0.013237955288
  9      -0.004962250675
 10      -0.009907228994
 11       0.011868171702
 12       0.027424560190
 13       0.054753649510
 14      -0.065591069525
 15      -0.022265083653
 16      -0.044452694442
 17       0.053251231606
 18       0.008588737389
 19       0.017147589765
 20      -0.020541618112
 21      -0.000000000001
 22      -0.000000000001
 23       0.000000000000
 24      -0.000000000000
 25       0.000000000001
 26       0.000000000001
 27       0.000000000001
 28      -0.000000000000
 29       0.000000000000
 30      -0.000000000000
 31      -0.446962233447
 32       0.060941495469
 33       0.160207437880
 34       0.344483340204
 35      -0.463155386975
 36       0.651871177799
 37       0.103529469012
 Sym=     1a
 Ene= 2.03217978101981E+00
 Spin= Alpha
 Occup= 0.000000
  1       0.000000000000
  2       0.000000000000
  3      -0.000000000000
  4       0.000000000000
  5      -0.000000000000
  6       0.000000001444
  7      -0.000000000511
  8      -0.000000008055
  9       0.000000001180
 10      -0.000000000225
 11      -0.000000011092
 12      -0.000000006772
 13       0.000000001568
 14       0.000000056454
 15       0.000000005250
 16      -0.000000000503
 17      -0.000000059586
 18      -0.000000001928
 19       0.000000000182
 20       0.000000022860
 21      -0.000000000000
 22       0.000000000001
 23      -0.000000000001
 24      -0.000000000000
 25      -0.000000000002
 26       0.000000000000
 27      -0.000000000000
 28       0.000000000000
 29       0.000000000000
 30       0.000000000001
 31       0.001867414922
 32      -0.078504360678
 33       0.023602973824
 34       0.808137552116
 35       0.579789075314
 36      -0.002221057279
 37      -0.063481254359
 Sym=     1a
 Ene= 2.03217978110417E+00
 Spin= Alpha
 Occup= 0.000000
  1      -0.000000000000
  2      -0.000000000000
  3       0.000000000001
  4      -0.000000000002
  5       0.000000000002
  6       0.000000003598
  7       0.000000007142
  8       0.000000000217
  9       0.000000004953
 10       0.000000009862
 11       0.000000000352
 12      -0.000000025238
 13      -0.000000050171
 14      -0.000000001768
 15       0.000000026665
 16       0.000000053014
 17       0.000000002018
 18      -0.000000010230
 19      -0.000000020348
 20      -0.000000000744
 21      -0.000000000001
 22      -0.000000000001
 23       0.000000000000
 24      -0.000000000002
 25      -0.000000000000
 26       0.000000000001
 27       0.000000000000
 28      -0.000000000000
 29       0.000000000001
 30      -0.000000000000
 31      -0.018211952979
 32       0.698654324120
 33      -0.360547566443
 34       0.085632761137
 35       0.055589142645
 36      -0.090625900170
 37       0.602428199993
 Sym=     1a
 Ene= 2.06527414661819E+00
 Spin= Alpha
 Occup= 0.000000
  1       0.000000000000
  2       0.000000000000
  3      -0.000000000000
  4       0.000000000000
  5      -0.000000000000
  6       0.000000000230
  7      -0.000000000300
  8      -0.000000000010
  9       0.000000000272
 10      -0.000000000312
 11       0.000000000451
 12      -0.000000001427
 13       0.000000001685
 14      -0.000000001842
 15       0.000000001406
 16      -0.000000001550
 17       0.000000003036
 18      -0.000000000534
 19       0.000000000581
 20      -0.000000001233
 21      -0.000000000001
 22       0.000000000001
 23      -0.000000000000