[Molden Format]
[Title]
 Molden file created by orca_2mkl for BaseName=orca_atom

[Atoms] AU
C    1   6          0.0000000000         0.0000000000         0.0000000000 
[GTO]
  1 0
s   6 1.0 
    13575.3496820000         0.5435905310
     2035.2333680000         1.0145543947
      463.2256235900         1.7315731970
      131.2001959800         2.6910376290
       42.8530158910         3.6044547126
       15.5841857660         3.7025556986
s   2 1.0 
        6.2067138508         1.8383540830
        2.5764896527         0.5447575605
s   1 1.0 
        0.5769633942         0.4718145038
s   1 1.0 
        0.2297283136         0.2364944676
s   1 1.0 
        0.0951644400         0.1221141848
p   4 1.0 
       34.6972322440         1.3596651507
        7.9582622826         1.4512589486
        2.3780826883         1.2709231419
        0.8143320818         0.8025721189
p   1 1.0 
        0.2888754725         0.3018758868
p   1 1.0 
        0.1005682367         0.0807265016
d   1 1.0 
        1.0970000000         3.3522135855
d   1 1.0 
        0.3180000000         0.3838994974
f   1 1.0 
        0.7610000000         3.0840084332

[5D]
[7F]
[9G]
[MO]
 Sym=     1a
 Ene= -1.03026786597162E+01
 Spin= Alpha
 Occup= 1.000000
  1      -0.466130958182
  2      -0.610039271390
  3      -0.033273390013
  4       0.019076478710
  5      -0.006567386561
  6      -0.000000000000
  7       0.000000000000
  8       0.000000000000
  9       0.000000000000
 10      -0.000000000000
 11      -0.000000000000
 12       0.000000000000
 13       0.000000000000
 14       0.000000000000
 15      -0.000358195446
 16      -0.000054249959
 17       0.000002731021
 18       0.000619627453
 19      -0.000062588365
 20       0.000052825077
 21       0.000007998770
 22      -0.000000402225
 23      -0.000091379713
 24       0.000009228566
 25       0.000000000000
 26      -0.000000000000
 27       0.000000000000
 28      -0.000000000000
 29       0.000000000000
 30       0.000000000000
 31       0.000000000000
 Sym=     1a
 Ene= -5.86006710976225E-01
 Spin= Alpha
 Occup= 1.000000
  1      -0.115887305131
  2      -0.250079436430
  3       0.439027932283
  4       0.520076702983
  5       0.170640546580
  6       0.000000000000
  7      -0.000000000001
  8      -0.000000000008
  9      -0.000000000001
 10      -0.000000000001
 11      -0.000000000001
 12       0.000000000001
 13      -0.000000000001
 14      -0.000000000004
 15       0.003722224512
 16       0.000563753511
 17      -0.000028380413
 18      -0.006438921521
 19       0.000650402188
 20       0.003923120799
 21       0.000594280838
 22      -0.000029945005
 23      -0.006786456530
 24       0.000685601770
 25      -0.000000000000
 26       0.000000000000
 27      -0.000000000000
 28       0.000000000000
 29       0.000000000000
 30       0.000000000000
 31      -0.000000000000
 Sym=     1a
 Ene= -2.65465939553359E-01
 Spin= Alpha
 Occup= 1.000000
  1       0.000000000000
  2      -0.000000000001
  3       0.000000000020
  4      -0.000000000071
  5       0.000000000073
  6       0.031939223662
  7       0.294292115686
  8       0.391837079758
  9       0.027705274971
 10       0.255276421644
 11       0.339889401270
 12       0.018003359935
 13       0.165883674332
 14       0.220866856336
 15      -0.000000000000
 16       0.000000000000
 17      -0.000000000001
 18       0.000000000001
 19      -0.000000000000
 20      -0.000000000003
 21      -0.000000000000
 22      -0.000000000002
 23      -0.000000000002
 24       0.000000000000
 25       0.000427884480
 26       0.000090961955
 27       0.000127335392
 28      -0.000548030291
 29       0.000092156776
 30       0.000106803752
 31       0.000503842538
 Sym=     1a
 Ene= -2.65465861361226E-01
 Spin= Alpha
 Occup= 1.000000
  1      -0.000000000000
  2       0.000000000000
  3      -0.000000000013
  4       0.000000000055
  5      -0.000000000055
  6       0.006874345336
  7       0.392360662763
  8      -0.295245695140
  9       0.005963023349
 10       0.340343692938
 11      -0.256103686743
 12       0.003874889245
 13       0.221162068516
 14      -0.166421240339
 15       0.000000000000
 16       0.000000000000
 17      -0.000000000001
 18      -0.000000000000
 19      -0.000000000000
 20       0.000000000003
 21      -0.000000000000
 22      -0.000000000001
 23       0.000000000002
 24       0.000000000000
 25      -0.000322424487
 26      -0.000054739820
 27       0.000177843712
 28       0.000420621623
 29       0.000006361228
 30       0.000080547224
 31       0.000678026849
 Sym=     1a
 Ene= -1.53079168783854E-01
 Spin= Alpha
 Occup= 0.000000
  1      -0.000000000000
  2      -0.000000000000
  3      -0.000000000004
  4       0.000000000021
  5      -0.000000000020
  6       0.443685283842
  7      -0.022354296232
  8      -0.019376658322
  9       0.398197669079
 10      -0.020062212736
 11      -0.017389827098
 12       0.361198240609
 13      -0.018198173450
 14      -0.015774120220
 15       0.000000000000
 16       0.000000000001
 17       0.000000000000
 18      -0.000000000000
 19      -0.000000000000
 20       0.000000000000
 21      -0.000000000009
 22       0.000000000000
 23       0.000000000000
 24      -0.000000000000
 25      -0.000277451973
 26       0.002577801848
 27      -0.000129872984
 28       0.000356852534
 29      -0.000036011646
 30       0.003319467460
 31      -0.000505069996
 Sym=     1a
 Ene= 1.39668202825737E-01
 Spin= Alpha
 Occup= 0.000000
  1       0.057546093373
  2       0.111829813985
  3       0.025410584232
  4      -1.809311618287
  5       2.059401595956
  6      -0.000000000003
  7       0.000000000003
  8       0.000000000011
  9      -0.000000000049
 10       0.000000000014
 11       0.000000000229
 12       0.000000000071
 13      -0.000000000022
 14      -0.000000000368
 15      -0.001522921085
 16      -0.000230638567
 17       0.000011606413
 18       0.002634435928
 19      -0.000266091219
 20      -0.001128359043
 21      -0.000170931203
 22       0.000008611319
 23       0.001951903828
 24      -0.000197194855
 25      -0.000000000000
 26      -0.000000000000
 27       0.000000000000
 28      -0.000000000000
 29      -0.000000000000
 30      -0.000000000000
 31       0.000000000000
 Sym=     1a
 Ene= 2.18178568677137E-01
 Spin= Alpha
 Occup= 0.000000
  1      -0.000000000013
  2      -0.000000000028
  3       0.000000000031
  4       0.000000000325
  5      -0.000000000404
  6       0.019482385280
  7       0.185597957360
  8       0.232111797350
  9       0.046401310691
 10       0.442041469384
 11       0.552824174835
 12      -0.083855770255
 13      -0.798834117415
 14      -0.999034848887
 15      -0.000000000001
 16      -0.000000000000
 17      -0.000000000000
 18      -0.000000000003
 19       0.000000000000
 20       0.000000000010
 21       0.000000000003
 22      -0.000000000001
 23       0.000000000018
 24      -0.000000000000
 25       0.000224004542
 26       0.000047826111
 27       0.000071103363
 28      -0.000286779629
 29       0.000049471079
 30       0.000058501492
 31       0.000280924116
 Sym=     1a
 Ene= 2.18178668915831E-01
 Spin= Alpha
 Occup= 0.000000
  1      -0.000000000010
  2      -0.000000000020
  3       0.000000000022
  4       0.000000000233
  5      -0.000000000290
  6      -0.003580815745
  7      -0.232446545715
  8       0.186166182128
  9      -0.008528484469
 10      -0.553621435415
 11       0.443394789972
 12       0.015412315762
 13       1.000475610268
 14      -0.801279817857
 15      -0.000000000001
 16       0.000000000000
 17       0.000000000000
 18      -0.000000000002
 19       0.000000000000
 20       0.000000000008
 21      -0.000000000000
 22       0.000000000001
 23       0.000000000014
 24       0.000000000000
 25       0.000179674572
 26       0.000030806358
 27      -0.000093214007
 28      -0.000234231913
 29      -0.000001913376
 30      -0.000041422532
 31      -0.000355076592
 Sym=     1a
 Ene= 2.33282939506833E-01
 Spin= Alpha
 Occup= 0.000000
  1      -0.000000000004
  2      -0.000000000009
  3       0.000000000012
  4       0.000000000091
  5      -0.000000000118
  6      -0.314541789591
  7       0.015844155744
  8       0.013732847833
  9      -0.765662042530
 10       0.038568154462
 11       0.033428809448
 12       1.266172234570
 13      -0.063778932408
 14      -0.055279881474
 15       0.000000000000
 16       0.000000000006
 17      -0.000000000000
 18      -0.000000000000
 19       0.000000000000
 20       0.000000000000
 21      -0.000000000046
 22      -0.000000000000
 23       0.000000000001
 24      -0.000000000000
 25       0.000162372166
 26      -0.001508793002
 27       0.000076011982
 28      -0.000208845379
 29       0.000021065501
 30      -0.001942887923
 31       0.000295590004
 Sym=     1a
 Ene= 6.52688190258842E-01
 Spin= Alpha
 Occup= 0.000000
  1      -0.000000003090
  2      -0.000000009772
  3       0.000000069332
  4      -0.000000101039
  5       0.000000049516
  6      -0.000000000001
  7       0.000000000003
  8       0.000000000000
  9      -0.000000000000
 10      -0.000000000000
 11      -0.000000000000
 12       0.000000000003
 13       0.000000000000
 14       0.000000000001
 15      -0.000198163274
 16      -0.000278610000
 17      -0.005331245134
 18      -0.000137659399
 19      -0.000220137822
 20       0.037154137291
 21       0.052236496130
 22       0.999597391291
 23       0.025812614345
 24       0.041273124710
 25       0.000000000000
 26      -0.000000000000
 27      -0.000000000001
 28       0.000000000000
 29      -0.000000000000
 30      -0.000000000000
 31       0.000000000000
 Sym=     1a
 Ene= 6.52688193136978E-01
 Spin= Alpha
 Occup= 0.000000
  1       0.000000000738
  2       0.000000002325
  3      -0.000000016262
  4       0.000000023608
  5      -0.000000011824
  6       0.000000000001
  7       0.000000000001
  8       0.000000000013
  9       0.000000000000
 10      -0.000000000000
 11       0.000000000000
 12      -0.000000000002
 13       0.000000000000
 14      -0.000000000023
 15       0.004618900110
 16       0.000220824200
 17      -0.000240448491
 18       0.002662307273
 19      -0.000279010938
 20      -0.866032620323
 21      -0.041405140735
 22       0.045083554467
 23      -0.499176829799
 24       0.052315152179
 25       0.000000000001
 26       0.000000000000
 27       0.000000000000
 28       0.000000000000
 29      -0.000000000000
 30      -0.000000000000
 31      -0.000000000000
 Sym=     1a
 Ene= 6.56211829863296E-01
 Spin= Alpha
 Occup= 0.000000
  1      -0.000000019858
  2      -0.000000058045
  3       0.000000379038
  4      -0.000000500514
  5       0.000000228821
  6       0.000000000023
  7       0.000000000000
  8       0.000000000001
  9       0.000000000003
 10      -0.000000000000
 11      -0.000000000000
 12      -0.000000000038
 13       0.000000000000
 14      -0.000000000001
 15      -0.000538974178
 16       0.007100043226
 17      -0.000582609161
 18       0.000827231125
 19       0.005092427448
 20       0.061440744278
 21      -0.809443973307
 22       0.066422333284
 23      -0.094299945335
 24      -0.580565202197
 25      -0.000000000000
 26       0.000000000001
 27      -0.000000000000
 28       0.000000000000
 29       0.000000000001
 30       0.000000000000
 31      -0.000000000000
 Sym=     1a
 Ene= 6.56211853607536E-01
 Spin= Alpha
 Occup= 0.000000
  1       0.000000002536
  2       0.000000007513
  3      -0.000000050210
  4       0.000000068635
  5      -0.000000032649
  6       0.000000000017
  7       0.000000000000
  8      -0.000000000001
  9       0.000000000002
 10      -0.000000000000
 11      -0.000000000000
 12      -0.000000000027
 13      -0.000000000000
 14       0.000000000002
 15      -0.000388730611
 16       0.005144308359
 17       0.000052665822
 18      -0.000494496020
 19      -0.007127163473
 20       0.044316873530
 21      -0.586474667086
 22      -0.006004362756
 23       0.056373073533
 24       0.812529655644
 25      -0.000000000000
 26       0.000000000001
 27      -0.000000000000
 28      -0.000000000000
 29      -0.000000000001
 30      -0.000000000000
 31       0.000000000000
 Sym=     1a
 Ene= 6.64640310103128E-01
 Spin= Alpha
 Occup= 0.000000
  1      -0.000895638104
  2      -0.001202772538
  3      -0.008652825452
  4       0.031973604440
  5      -0.014049101340
  6       0.000000000002
  7      -0.000000000000
  8      -0.000000000010
  9       0.000000000001
 10       0.000000000000
 11       0.000000000000
 12      -0.000000000004
 13      -0.000000000000
 14       0.000000000012
 15       0.005928985084
 16       0.000897997959
 17      -0.000045217125
 18      -0.010256309877
 19       0.001036016759
 20      -0.500234576533
 21      -0.075770641207
 22       0.003816614448
 23       0.865335994649
 24      -0.087415208345
 25       0.000000000001
 26       0.000000000000
 27       0.000000000000
 28      -0.000000000001
 29       0.000000000000
 30       0.000000000000
 31       0.000000000000
 Sym=     1a
 Ene= 1.19656344938320E+00
 Spin= Alpha
 Occup= 0.000000
  1       0.133207315579
  2       0.405982730281
  3      -2.866855376735
  4       3.933828672888
  5      -1.690980803441
  6      -0.000000000054
  7       0.000000000018
  8       0.000000000340
  9       0.000000000066
 10      -0.000000000024
 11      -0.000000000443
 12      -0.000000000027
 13       0.000000000010
 14       0.000000000194
 15      -0.004536695320
 16      -0.000687022333
 17       0.000034563663
 18       0.007847830705
 19      -0.000792634958
 20       0.004745945569
 21       0.000718696095
 22      -0.000036151592
 23      -0.008209800946
 24       0.000829181047
 25       0.000000000002
 26       0.000000000000
 27       0.000000000000
 28      -0.000000000003
 29       0.000000000000
 30      -0.000000000000
 31       0.000000000000
 Sym=     1a
 Ene= 1.34648757800285E+00
 Spin= Alpha
 Occup= 0.000000
  1       0.000000000028
  2       0.000000000085
  3      -0.000000000625
  4       0.000000000909
  5      -0.000000000430
  6      -0.081113816646
  7      -0.756090262841
  8      -0.985420479655
  9       0.111478660704
 10       1.039129446438
 11       1.354308466160
 12      -0.051755142096
 13      -0.482425790058
 14      -0.628750670959
 15      -0.000000000002
 16      -0.000000000000
 17       0.000000000001
 18      -0.000000000000
 19      -0.000000000000
 20      -0.000000000001
 21      -0.000000000001
 22       0.000000000001
 23      -0.000000000008
 24       0.000000000000
 25      -0.001170067657
 26      -0.000249091372
 27      -0.000355952973
 28       0.001498392936
 29      -0.000254153214
 30      -0.000296572269
 31      -0.001407709676
 Sym=     1a
 Ene= 1.34648768948151E+00
 Spin= Alpha
 Occup= 0.000000
  1       0.000000000020
  2       0.000000000059
  3      -0.000000000436
  4       0.000000000636
  5      -0.000000000302
  6       0.016590278557
  7       0.986771967199
  8      -0.758492836954
  9      -0.022800795850
 10      -1.356165825126
 11       1.042431384871
 12       0.010585495432
 13       0.629612987441
 14      -0.483958767845
 15      -0.000000000001
 16      -0.000000000000
 17      -0.000000000000
 18       0.000000000000
 19      -0.000000000000
 20      -0.000000000001
 21       0.000000000000
 22      -0.000000000001
 23      -0.000000000006
 24       0.000000000000
 25      -0.000900659773
 26      -0.000153406891
 27       0.000486499624
 28       0.001174667124
 29       0.000014921440
 30       0.000218928485
 31       0.001854269577
 Sym=     1a
 Ene= 1.37245708992780E+00
 Spin= Alpha
 Occup= 0.000000
  1       0.000000000007
  2       0.000000000021
  3      -0.000000000153
  4       0.000000000226
  5      -0.000000000109
  6       1.255006786481
  7      -0.063220437955
  8      -0.054797128557
  9      -1.688262686244
 10       0.085045371682
 11       0.073714134211
 12       0.778812934286
 13      -0.039232237024
 14      -0.034005011924
 15      -0.000000000000
 16       0.000000000004
 17       0.000000000000
 18       0.000000000000
 19      -0.000000000000
 20       0.000000000000
 21       0.000000000013
 22       0.000000000000
 23      -0.000000000001
 24      -0.000000000000
 25      -0.000168494255
 26       0.001566948469
 27      -0.000078922734
 28       0.000216758484
 29      -0.000021795408
 30       0.002017751284
 31      -0.000306797371
 Sym=     1a
 Ene= 2.63230751185932E+00
 Spin= Alpha
 Occup= 0.000000
  1       0.000000000000
  2       0.000000000000
  3      -0.000000000001
  4       0.000000000001
  5      -0.000000000000
  6      -0.000000080898
  7      -0.000000002194
  8      -0.000000003318
  9       0.000000105111
 10       0.000000003928
 11       0.000000005560
 12      -0.000000041057
 13      -0.000000004668
 14      -0.000000005510
 15       0.000000000000
 16      -0.000000000001
 17       0.000000000001
 18      -0.000000000001
 19      -0.000000000006
 20      -0.000000000000
 21       0.000000000001
 22      -0.000000000001
 23       0.000000000000
 24       0.000000000004
 25      -0.002733040679
 26       0.022048017077
 27      -0.069989476533
 28       0.100763507593
 29       0.990564672532
 30      -0.027733276270
 31      -0.049669900968
 Sym=     1a
 Ene= 2.63230757897085E+00
 Spin= Alpha
 Occup= 0.000000
  1       0.000000000000
  2       0.000000000000
  3      -0.000000000001
  4       0.000000000001
  5      -0.000000000000
  6      -0.000000019754
  7      -0.000000029163
  8       0.000000030121
  9       0.000000026647
 10       0.000000042904
 11      -0.000000044032
 12      -0.000000010345
 13      -0.000000023519
 14       0.000000023690
 15       0.000000000001
 16      -0.000000000006
 17       0.000000000000
 18       0.000000000000
 19       0.000000000001
 20      -0.000000000001
 21       0.000000000004
 22      -0.000000000000
 23      -0.000000000000
 24      -0.000000000001
 25      -0.084196476387
 26       0.784017313941
 27      -0.037253028718
 28       0.018309246593
 29      -0.034417898614
 30      -0.605392632757
 31       0.093914624021
 Sym=     1a
 Ene= 2.63493524366099E+00
 Spin= Alpha
 Occup= 0.000000
  1       0.000000000000
  2       0.000000000000
  3      -0.000000000000
  4       0.000000000000
  5      -0.000000000000
  6      -0.000000035847
  7      -0.000000005175
  8      -0.000000008164
  9       0.000000056650
 10       0.000000003905
 11       0.000000007375
 12      -0.000000021698
 13      -0.000000002370
 14      -0.000000003915
 15      -0.000000000003
 16       0.000000000000
 17       0.000000000007
 18      -0.000000000002
 19       0.000000000000
 20       0.000000000002
 21      -0.000000000000
 22      -0.000000000005
 23       0.000000000001
 24      -0.000000000000
 25       0.536376000694
 26      -0.007025360416
 27      -0.708765851217
 28       0.411010440276
 29      -0.080789678064
 30       0.005719422069
 31       0.185507769253
 Sym=     1a
 Ene= 2.63493526332984E+00
 Spin= Alpha
 Occup= 0.000000
  1       0.000000000000
  2       0.000000000000
  3      -0.000000000000
  4       0.000000000001
  5      -0.000000000000
  6       0.000000000771
  7       0.000000013803
  8      -0.000000014876
  9      -0.000000001133
 10      -0.000000014843
 11       0.000000016225
 12       0.000000000441
 13       0.000000007091
 14      -0.000000007688
 15      -0.000000000006
 16      -0.000000000000
 17      -0.000000000004
 18      -0.000000000003
 19       0.000000000000
 20       0.000000000004
 21       0.000000000000
 22       0.000000000003
 23       0.000000000002
 24      -0.000000000000
 25       0.577715418749
 26       0.063910564807
 27       0.655156861029
 28       0.450562791829
 29      -0.009054163502
 30      -0.049430826133
 31      -0.165522228910
 Sym=     1a
 Ene= 2.63739274499344E+00
 Spin= Alpha
 Occup= 0.000000
  1       0.000000000000
  2       0.000000000001
  3      -0.000000000007
  4       0.000000000010
  5      -0.000000000004
  6       0.000234208179
  7       0.002127734086
  8       0.002904685268
  9      -0.000224565631
 10      -0.002037670289
 11      -0.002781741111
 12       0.000102160626
 13       0.000927250414
 14       0.001265842112
 15       0.000000000004
 16       0.000000000001
 17       0.000000000001
 18      -0.000000000004
 19       0.000000000001
 20      -0.000000000003
 21      -0.000000000001
 22      -0.000000000001
 23       0.000000000003
 24      -0.000000000001
 25      -0.488289257625
 26      -0.103530530861
 27      -0.141620256838
 28       0.625504406624
 29      -0.104141270236
 30      -0.119596815235
 31      -0.560702438403
 Sym=     1a
 Ene= 2.63739302929960E+00
 Spin= Alpha
 Occup= 0.000000
  1       0.000000000000
  2       0.000000000001
  3      -0.000000000005
  4       0.000000000007
  5      -0.000000000003
  6      -0.000053327303
  7      -0.002908589558
  8       0.002134897785
  9       0.000051104379
 10       0.002785472949
 11      -0.002044533292
 12      -0.000023251446
 13      -0.001267532616
 14       0.000930366797
 15       0.000000000003
 16       0.000000000000
 17      -0.000000000001
 18      -0.000000000002
 19      -0.000000000000
 20      -0.000000000002
 21      -0.000000000000
 22       0.000000000001
 23       0.000000000001
 24       0.000000000000
 25      -0.358857994702
 26      -0.060690177305
 27       0.202849537845
 28       0.468293432309
 29       0.008437788044
 30       0.092520871290
 31       0.773597257186
 Sym=     1a
 Ene= 2.64369614650357E+00
 Spin= Alpha
 Occup= 0.000000
  1      -0.000000000000
  2      -0.000000000000
  3       0.000000000001
  4      -0.000000000001
  5       0.000000000001
  6       0.005923237947
  7      -0.000298098254
  8      -0.000258328531
  9      -0.000766126578
 10       0.000038300677
 11       0.000033142922
 12       0.000398286931
 13      -0.000019938828
 14      -0.000017258932
 15      -0.000000000001
 16       0.000000000005
 17      -0.000000000000
 18       0.000000000001
 19       0.000000000001
 20       0.000000000000
 21      -0.000000000003
 22       0.000000000000
 23      -0.000000000000
 24      -0.000000000001
 25       0.065123142685
 26      -0.605213578026
 27       0.030486958301
 28      -0.083762263850
 29       0.008450406955
 30      -0.779340730025
 31       0.118555842238
 Sym=     1a
 Ene= 2.87765797749742E+00
 Spin= Alpha
 Occup= 0.000000
  1      -0.000000002495
  2      -0.000000009791
  3       0.000000038883
  4      -0.000000018176
  5       0.000000009014
  6      -0.000000000000
  7       0.000000000001
  8       0.000000000000
  9       0.000000000000
 10      -0.000000000000
 11       0.000000000000
 12      -0.000000000000
 13       0.000000000000
 14      -0.000000000000
 15       0.026937492872
 16       0.060674112097
 17       1.177518457120
 18       0.020707752151
 19       0.049587211734
 20      -0.014216005567
 21      -0.032020187494
 22      -0.621423827345
 23      -0.010928300210
 24      -0.026169183076
 25      -0.000000000001
 26       0.000000000000
 27       0.000000000007
 28      -0.000000000001
 29       0.000000000000
 30      -0.000000000000
 31      -0.000000000000
 Sym=     1a
 Ene= 2.87765803740084E+00
 Spin= Alpha
 Occup= 0.000000
  1      -0.000000000691
  2      -0.000000002747
  3       0.000000011143
  4      -0.000000005694
  5       0.000000002715
  6      -0.000000000000
  7      -0.000000000000
  8      -0.000000000001
  9       0.000000000000
 10       0.000000000000
 11       0.000000000005
 12      -0.000000000000
 13      -0.000000000000
 14      -0.000000000005
 15       1.020140257570
 16       0.049767741453
 17      -0.033683441946
 18       0.588090534721
 19      -0.060797789969
 20      -0.538369026608
 21      -0.026264403289
 22       0.017776106184
 23      -0.310359013289
 24       0.032085400841
 25       0.000000000006
 26       0.000000000000
 27       0.000000000001
 28       0.000000000003
 29      -0.000000000000
 30      -0.000000000000
 31      -0.000000000001
 Sym=     1a
 Ene= 2.88930608712827E+00
 Spin= Alpha
 Occup= 0.000000
  1       0.000000056253
  2       0.000000172887
  3      -0.000000837995
  4       0.000000642025
  5      -0.000000263599
  6      -0.000000000002
  7      -0.000000000000
  8      -0.000000000000
  9       0.000000000007
 10      -0.000000000000
 11       0.000000000000
 12      -0.000000000007
 13       0.000000000000
 14      -0.000000000000
 15      -0.071252175364
 16       0.939053870259
 17      -0.078150483141
 18       0.111893392453
 19       0.698762242542
 20       0.037425598556
 21      -0.493242743245
 22       0.041048908466
 23      -0.058772617271
 24      -0.367028362220
 25      -0.000000000000
 26       0.000000000005
 27      -0.000000000001
 28       0.000000000001
 29       0.000000000004
 30       0.000000000001
 31      -0.000000000000
 Sym=     1a
 Ene= 2.88930673711624E+00
 Spin= Alpha
 Occup= 0.000000
  1      -0.000000006621
  2      -0.000000020421
  3       0.000000099005
  4      -0.000000075890
  5       0.000000030992
  6      -0.000000000002
  7       0.000000000000
  8       0.000000000000
  9       0.000000000006
 10       0.000000000000
 11      -0.000000000000
 12      -0.000000000005
 13      -0.000000000000
 14       0.000000000000
 15      -0.053350913983
 16       0.705634299317
 17       0.005694746465
 18      -0.064310504355
 19      -0.942794244796
 20       0.028022872225
 21      -0.370637915189
 22      -0.002991192915
 23       0.033779443027
 24       0.495207351753
 25      -0.000000000000
 26       0.000000000004
 27      -0.000000000000
 28      -0.000000000000
 29      -0.000000000004
 30      -0.000000000001
 31       0.000000000000
 Sym=     1a
 Ene= 2.90919365537191E+00
 Spin= Alpha
 Occup= 0.000000
  1       0.001587511167
  2       0.004716002694
  3      -0.024860840431
  4       0.022145908903
  5      -0.008687190075
  6      -0.000000000000
  7       0.000000000000
  8       0.000000000002
  9       0.000000000001
 10      -0.000000000000
 11      -0.000000000002
 12      -0.000000000001
 13       0.000000000000
 14       0.000000000002
 15       0.586893673120
 16       0.088849521318
 17      -0.004467286356
 18      -1.015240927418
 19       0.102513535222
 20      -0.306982146864
 21      -0.046473817790
 22       0.002336648456
 23       0.531034577082
 24      -0.053620954722
 25       0.000000000003
 26       0.000000000001
 27       0.000000000000
 28      -0.000000000004
 29       0.000000000001
 30       0.000000000000
 31       0.000000000001
 Sym=     1a
 Ene= 2.11420610546077E+01
 Spin= Alpha
 Occup= 0.000000
  1      -1.376275703672
  2       1.661674735689
  3      -1.307833075034
  4       1.133636143824
  5      -0.416124520409
  6       0.000000000000
  7      -0.000000000000
  8      -0.000000000000
  9      -0.000000000000
 10       0.000000000000
 11       0.000000000001
 12       0.000000000000
 13      -0.000000000000
 14      -0.000000000001
 15      -0.000021773344
 16      -0.000003298665
 17       0.000000166583
 18       0.000037665099
 19      -0.000003805511
 20       0.000035378624
 21       0.000005359133
 22      -0.000000270110
 23      -0.000061200181
 24       0.000006182680
 25      -0.000000000000
 26      -0.000000000000
 27      -0.000000000000
 28       0.000000000000
 29       0.000000000000
 30       0.000000000000
 31      -0.000000000000
 Sym=     1a
 Ene= -1.02735291063490E+01
 Spin=Beta
 Occup= 1.000000
  1      -0.467312665104
  2      -0.610189415346
  3      -0.029564519370
  4       0.016969221279
  5      -0.005736660501
  6      -0.000000000000
  7       0.000000000000
  8       0.000000000000
  9       0.000000000000
 10      -0.000000000000
 11      -0.000000000000
 12       0.000000000000
 13       0.000000000000
 14       0.000000000000
 15       0.000336975492
 16       0.000051044170
 17      -0.000002571654
 18      -0.000582920834
 19       0.000058888220
 20      -0.000108702338
 21      -0.000016465938
 22       0.000000829566
 23       0.000188039957
 24      -0.000018996290
 25       0.000000000000
 26      -0.000000000000
 27      -0.000000000000
 28      -0.000000000000
 29       0.000000000000
 30       0.000000000000
 31       0.000000000000
 Sym=     1a
 Ene= -4.75982095496837E-01
 Spin=Beta
 Occup= 1.000000
  1       0.111562845717
  2       0.237635188082
  3      -0.403020709335
  4      -0.490381547376
  5      -0.238716634398
  6      -0.000000000001
  7      -0.000000000001
  8      -0.000000000006
  9       0.000000000002
 10      -0.000000000001
 11      -0.000000000012
 12      -0.000000000001
 13      -0.000000000001
 14       0.000000000001
 15       0.005387496642
 16       0.000816085947
 17      -0.000041115716
 18      -0.009319621716
 19       0.000941494895
 20       0.010224806040
 21       0.001548841418
 22      -0.000078036193
 23      -0.017687497337
 24       0.001786851688
 25       0.000000000000
 26       0.000000000000
 27      -0.000000000000
 28      -0.000000000000
 29       0.000000000000
 30       0.000000000000
 31       0.000000000000
 Sym=     1a
 Ene= -1.23976639174136E-01
 Spin=Beta
 Occup= 0.000000
  1       0.000000000000
  2       0.000000000000
  3       0.000000000004
  4      -0.000000000020
  5       0.000000000018
  6      -0.430049263082
  7       0.021667268637
  8       0.018781146234
  9      -0.369626942532
 10       0.018623000150
 11       0.016142380860
 12      -0.409354110699
 13       0.020624589902
 14       0.017877356208
 15       0.000000000000
 16      -0.000000000002
 17       0.000000000000
 18      -0.000000000000
 19      -0.000000000000
 20       0.000000000000
 21       0.000000000008
 22       0.000000000000
 23      -0.000000000000
 24      -0.000000000000
 25      -0.000714122362
 26       0.006633256931
 27      -0.000334205077
 28       0.000918424355
 29      -0.000092781337
 30       0.008541765185
 31      -0.001299891855
 Sym=     1a
 Ene= -7.79623701465242E-02
 Spin=Beta
 Occup= 0.000000
  1       0.000000000001