[Molden Format]
[Title]
 Molden file created by orca_2mkl for BaseName=orca_atom

[Atoms] AU
O    1   8          0.0000000000         0.0000000000         0.0000000000 
[GTO]
  1 0
s   6 1.0 
    27032.3826310000         0.8598581479
     4052.3871392000         1.6055305368
      922.3272271000         2.7458778516
      261.2407098900         4.2987674426
       85.3546413510         5.8797663284
       31.0350352450         6.3163983216
s   2 1.0 
       12.2608607280         2.9812147522
        4.9987076005         0.9419559635
s   1 1.0 
        1.1703108158         0.8019291610
s   1 1.0 
        0.4647474099         0.4011648062
s   1 1.0 
        0.1850453636         0.2010799406
p   4 1.0 
       63.2749548010         3.0572017144
       14.6270493790         3.3844839414
        4.4501223456         2.9474262132
        1.5275799647         1.7118271494
p   1 1.0 
        0.5293511794         0.6436057926
p   1 1.0 
        0.1747842127         0.1610897254
d   1 1.0 
        2.3140000000        12.3767310624
d   1 1.0 
        0.6450000000         1.3234257612
f   1 1.0 
        1.4280000000        12.7097950062

[5D]
[7F]
[9G]
[MO]
 Sym=     1a
 Ene= -1.92722054239979E+01
 Spin= Alpha
 Occup= 1.000000
  1       0.434475737673
  2       0.640101288896
  3       0.032944267091
  4      -0.016382422209
  5       0.005345124617
  6      -0.000000000000
  7      -0.000000000000
  8      -0.000000000000
  9       0.000000000000
 10       0.000000000000
 11       0.000000000000
 12      -0.000000000000
 13       0.000000000000
 14      -0.000000000000
 15       0.000298133443
 16       0.000000000766
 17       0.000000957697
 18       0.000516382499
 19      -0.000000825748
 20      -0.000085336845
 21      -0.000000000219
 22      -0.000000274129
 23      -0.000147807817
 24       0.000000236360
 25      -0.000000000000
 26       0.000000000000
 27      -0.000000000000
 28       0.000000000000
 29      -0.000000000000
 30      -0.000000000000
 31      -0.000000000000
 Sym=     1a
 Ene= -1.01715095312479E+00
 Spin= Alpha
 Occup= 1.000000
  1      -0.111925793574
  2      -0.265481370562
  3       0.410520283645
  4       0.525710272210
  5       0.201448248434
  6      -0.000000000000
  7      -0.000000000001
  8       0.000000000000
  9      -0.000000000000
 10      -0.000000000000
 11      -0.000000000000
 12       0.000000000000
 13       0.000000000000
 14       0.000000000000
 15       0.003670811224
 16       0.000000009428
 17       0.000011791779
 18       0.006358034352
 19      -0.000010167132
 20       0.007326454171
 21       0.000000018817
 22       0.000023534832
 23       0.012689796456
 24      -0.000020292251
 25       0.000000000000
 26      -0.000000000000
 27      -0.000000000000
 28      -0.000000000000
 29      -0.000000000000
 30       0.000000000000
 31       0.000000000000
 Sym=     1a
 Ene= -4.59205757079815E-01
 Spin= Alpha
 Occup= 1.000000
  1      -0.000000000000
  2      -0.000000000001
  3      -0.000000000001
  4       0.000000000015
  5      -0.000000000017
  6      -0.043987202906
  7       0.000523871015
  8       0.527007645432
  9      -0.035588733417
 10       0.000423848383
 11       0.426386161459
 12      -0.020132454000
 13       0.000239770101
 14       0.241205543452
 15      -0.000000000000
 16       0.000000000000
 17      -0.000000000000
 18       0.000000000000
 19       0.000000000000
 20      -0.000000000000
 21      -0.000000000000
 22       0.000000000000
 23       0.000000000000
 24      -0.000000000000
 25       0.004094892070
 26      -0.000139520391
 27       0.000017164021
 28       0.005286483952
 29      -0.000009271969
 30       0.000540399032
 31      -0.000007300242
 Sym=     1a
 Ene= -4.59205757076136E-01
 Spin= Alpha
 Occup= 1.000000
  1      -0.000000000000
  2      -0.000000000001
  3      -0.000000000001
  4       0.000000000013
  5      -0.000000000014
  6       0.527007736184
  7      -0.000380578635
  8       0.043987588794
  9       0.426386234903
 10      -0.000307914800
 11       0.035589045623
 12       0.241205584959
 13      -0.000174186727
 14       0.020132630624
 15       0.000000000000
 16       0.000000000000
 17       0.000000000000
 18       0.000000000000
 19      -0.000000000000
 20       0.000000000000
 21      -0.000000000001
 22      -0.000000000000
 23      -0.000000000000
 24       0.000000000000
 25       0.000341787126
 26       0.001671734008
 27       0.000000086677
 28       0.000441261155
 29       0.000009098876
 30      -0.006474600485
 31       0.000015029187
 Sym=     1a
 Ene= -3.83906312246064E-01
 Spin= Alpha
 Occup= 1.000000
  1       0.000000000000
  2       0.000000000000
  3      -0.000000000000
  4      -0.000000000003
  5       0.000000000005
  6       0.000412217002
  7       0.515561326727
  8      -0.000478086827
  9       0.000328736609
 10       0.411152061156
 11      -0.000381266763
 12       0.000224899368
 13       0.281282659770
 14      -0.000260836948
 15       0.000000000000
 16       0.000000000000
 17       0.000000000000
 18       0.000000000000
 19      -0.000000000000
 20      -0.000000000000
 21      -0.000000000000
 22      -0.000000000001
 23      -0.000000000000
 24      -0.000000000000
 25      -0.000011471366
 26       0.000004037916
 27       0.005050238551
 28      -0.000014809458
 29       0.000000023682
 30      -0.000015638825
 31      -0.006519835688
 Sym=     1a
 Ene= 3.17662678819789E-01
 Spin= Alpha
 Occup= 0.000000
  1       0.057512438938
  2       0.121780037379
  3       0.048356381557
  4      -1.791252106867
  5       2.000659778113
  6       0.000000000004
  7      -0.000000000003
  8       0.000000000016
  9       0.000000000005
 10      -0.000000000003
 11       0.000000000024
 12      -0.000000000004
 13       0.000000000003
 14      -0.000000000040
 15      -0.002732304514
 16      -0.000000007017
 17      -0.000008777015
 18      -0.004732492328
 19       0.000007567736
 20       0.001001992287
 21       0.000000002573
 22       0.000003218752
 23       0.001735502313
 24      -0.000002775279
 25       0.000000000000
 26       0.000000000000
 27      -0.000000000000
 28       0.000000000000
 29       0.000000000000
 30      -0.000000000000
 31       0.000000000000
 Sym=     1a
 Ene= 3.80228518964652E-01
 Spin= Alpha
 Occup= 0.000000
  1       0.000000000000
  2       0.000000000000
  3      -0.000000000000
  4      -0.000000000004
  5       0.000000000005
  6      -0.295717013552
  7       0.000252960269
  8       0.017814362436
  9      -0.624219229247
 10       0.000533965353
 11       0.037603746418
 12       1.241793671439
 13      -0.001062246505
 14      -0.074807202562
 15       0.000000000000
 16       0.000000000001
 17       0.000000000000
 18       0.000000000001
 19      -0.000000000000
 20       0.000000000000
 21      -0.000000000001
 22      -0.000000000000
 23      -0.000000000000
 24       0.000000000000
 25       0.000092305845
 26      -0.000625546229
 27       0.000000884550
 28       0.000119160519
 29      -0.000003859299
 30       0.002422733136
 31      -0.000005946640
 Sym=     1a
 Ene= 3.80228518982028E-01
 Spin= Alpha
 Occup= 0.000000
  1       0.000000000002
  2       0.000000000005
  3      -0.000000000003
  4      -0.000000000056
  5       0.000000000067
  6      -0.017814583656
  7      -0.000259978903
  8      -0.295716994137
  9      -0.037604213387
 10      -0.000548780752
 11      -0.624219188293
 12       0.074808131523
 13       0.001091719588
 14       1.241793589919
 15       0.000000000000
 16       0.000000000001
 17      -0.000000000000
 18       0.000000000000
 19       0.000000000000
 20      -0.000000000000
 21      -0.000000000001
 22       0.000000000000
 23      -0.000000000000
 24      -0.000000000000
 25      -0.001532269659
 26      -0.000037688809
 27      -0.000006350739
 28      -0.001978152849
 29       0.000002942255
 30       0.000145953890
 31       0.000001896554
 Sym=     1a
 Ene= 4.05858183367758E-01
 Spin= Alpha
 Occup= 0.000000
  1       0.000000000000
  2       0.000000000000
  3      -0.000000000000
  4      -0.000000000005
  5       0.000000000007
  6       0.000242673951
  7       0.303513038805
  8      -0.000281451805
  9       0.000522190545
 10       0.653105193981
 11      -0.000605633487
 12      -0.000992744990
 13      -1.241628807821
 14       0.001151379733
 15      -0.000000000000
 16      -0.000000000000
 17      -0.000000000001
 18      -0.000000000000
 19      -0.000000000000
 20       0.000000000000
 21       0.000000000000
 22       0.000000000001
 23       0.000000000000
 24       0.000000000000
 25      -0.000004757965
 26       0.000001674802
 27       0.002094681228
 28      -0.000006142502
 29       0.000000009822
 30      -0.000006486497
 31      -0.002704224223
 Sym=     1a
 Ene= 1.36436981994222E+00
 Spin= Alpha
 Occup= 0.000000
  1      -0.000000000006
  2      -0.000000000023
  3       0.000000000146
  4      -0.000000000192
  5       0.000000000076
  6      -0.000000000000
  7      -0.000000000000
  8       0.000000000000
  9      -0.000000000000
 10       0.000000000000
 11       0.000000000000
 12      -0.000000000000
 13      -0.000000000000
 14       0.000000000000
 15       0.000942563032
 16      -0.000000235284
 17       0.000001009451
 18      -0.000544189260
 19       0.000000869991
 20       0.865542008766
 21      -0.000216057553
 22       0.000926968849
 23      -0.499721132605
 24       0.000798903851
 25      -0.000000000000
 26      -0.000000000000
 27      -0.000000000000
 28       0.000000000000
 29      -0.000000000000
 30      -0.000000000000
 31      -0.000000000000
 Sym=     1a
 Ene= 1.36436981994780E+00
 Spin= Alpha
 Occup= 0.000000
  1       0.000000000000
  2       0.000000000000
  3       0.000000000000
  4      -0.000000000001
  5       0.000000000001
  6      -0.000000000001
  7      -0.000000000000
  8      -0.000000000000
  9       0.000000000000
 10      -0.000000000000
 11      -0.000000000000
 12      -0.000000000001
 13      -0.000000000000
 14      -0.000000000000
 15      -0.000000204460
 16      -0.001088378155
 17       0.000000869990
 18       0.000000116431
 19      -0.000001009451
 20      -0.000187753049
 21      -0.999441933939
 22       0.000798903216
 23       0.000106917286
 24      -0.000926968521
 25      -0.000000000000
 26       0.000000000000
 27       0.000000000000
 28       0.000000000000
 29       0.000000000000
 30      -0.000000000000
 31      -0.000000000000
 Sym=     1a
 Ene= 1.40544961580135E+00
 Spin= Alpha
 Occup= 0.000000
  1       0.000000000005
  2       0.000000000007
  3       0.000000000040
  4      -0.000000000182
  5       0.000000000127
  6      -0.000000000000
  7      -0.000000000000
  8       0.000000000000
  9       0.000000000000
 10       0.000000000000
 11      -0.000000000000
 12      -0.000000000000
 13      -0.000000000000
 14       0.000000000000
 15      -0.000002462701
 16       0.000002450839
 17       0.001533288020
 18      -0.000003534119
 19      -0.001320912718
 20       0.001218121651
 21      -0.001212257802
 22      -0.758407814646
 23       0.001748074052
 24       0.653360956960
 25      -0.000000000000
 26       0.000000000000
 27       0.000000000000
 28      -0.000000000000
 29      -0.000000000000
 30      -0.000000000000
 31       0.000000000000
 Sym=     1a
 Ene= 1.40544961580136E+00
 Spin= Alpha
 Occup= 0.000000
  1       0.000000000000
  2       0.000000000000
  3      -0.000000000000
  4       0.000000000000
  5      -0.000000000000
  6      -0.000000000000
  7       0.000000000000
  8      -0.000000000000
  9       0.000000000000
 10       0.000000000000
 11       0.000000000000
 12      -0.000000000000
 13       0.000000000000
 14      -0.000000000000
 15       0.000002121589
 16       0.000000365703
 17      -0.001320915691
 18      -0.000001226981
 19      -0.001533291465
 20      -0.001049400965
 21      -0.000180887435
 22       0.653362427663
 23       0.000606901209
 24       0.758409518911
 25       0.000000000000
 26      -0.000000000000
 27      -0.000000000000
 28       0.000000000000
 29      -0.000000000000
 30      -0.000000000000
 31       0.000000000000
 Sym=     1a
 Ene= 1.41983603500904E+00
 Spin= Alpha
 Occup= 0.000000
  1      -0.004127933822
  2      -0.011462574099
  3       0.050353334531
  4      -0.045368576849
  5       0.025466405908
  6      -0.000000000000
  7      -0.000000000000
  8      -0.000000000000
  9      -0.000000000000
 10       0.000000000000
 11       0.000000000000
 12      -0.000000000000
 13      -0.000000000000
 14      -0.000000000000
 15       0.001696813232
 16       0.000000004358
 17       0.000005450690
 18       0.002938968025
 19      -0.000004699705
 20      -0.500723870466
 21      -0.000001286065
 22      -0.001608481087
 23      -0.867279566868
 24       0.001386867851
 25       0.000000000000
 26       0.000000000000
 27       0.000000000000
 28       0.000000000000
 29       0.000000000000
 30      -0.000000000000
 31      -0.000000000000
 Sym=     1a
 Ene= 2.39143921626613E+00
 Spin= Alpha
 Occup= 0.000000
  1      -0.000000000000
  2      -0.000000000001
  3       0.000000000003
  4      -0.000000000002
  5      -0.000000000000
  6       0.082377604394
  7       0.001033124880
  8       1.185133122561
  9      -0.113270201003
 10      -0.001420559179
 11      -1.629572357638
 12       0.051706780139
 13       0.000648471893
 14       0.743884436253
 15       0.000000000000
 16       0.000000000001
 17      -0.000000000000
 18       0.000000000000
 19       0.000000000000
 20      -0.000000000000
 21      -0.000000000000
 22       0.000000000000
 23      -0.000000000000
 24      -0.000000000000
 25      -0.002152929220
 26      -0.000061100177
 27      -0.000008916654
 28      -0.002779421471
 29       0.000004086276
 30       0.000236619987
 31       0.000002589099
 Sym=     1a
 Ene= 2.39143921629486E+00
 Spin= Alpha
 Occup= 0.000000
  1       0.000000000000
  2       0.000000000002
  3      -0.000000000010
  4       0.000000000013
  5      -0.000000000005
  6       1.185133192221
  7      -0.001023962419
  8      -0.082376716609
  9      -1.629572453427
 10       0.001407960684
 11       0.113268980290
 12       0.743884479992
 13      -0.000642720799
 14      -0.051706222896
 15       0.000000000000
 16       0.000000000001
 17       0.000000000000
 18       0.000000000000
 19      -0.000000000000
 20      -0.000000000000
 21      -0.000000000001
 22      -0.000000000000
 23      -0.000000000000
 24       0.000000000000
 25       0.000149646683
 26      -0.000878929273
 27       0.000001325926
 28       0.000193184879
 29      -0.000005463736
 30       0.003404082841
 31      -0.000008384635
 Sym=     1a
 Ene= 2.44987562371205E+00
 Spin= Alpha
 Occup= 0.000000
  1      -0.000000000002
  2      -0.000000000007
  3       0.000000000043
  4      -0.000000000056
  5       0.000000000023
  6      -0.000953055521
  7      -1.191989733199
  8       0.001105348121
  9       0.001300791574
 10       1.626904369089
 11      -0.001508650326
 12      -0.000588361022
 13      -0.735865101962
 14       0.000682377612
 15      -0.000000000000
 16      -0.000000000000
 17      -0.000000000001
 18      -0.000000000000
 19      -0.000000000000
 20       0.000000000000
 21       0.000000000000
 22       0.000000000000
 23       0.000000000000
 24       0.000000000000
 25      -0.000006104335
 26       0.000002148723
 27       0.002687415604
 28      -0.000007880656
 29       0.000000012602
 30      -0.000008321993
 31      -0.003469441688
 Sym=     1a
 Ene= 2.50281442584329E+00
 Spin= Alpha
 Occup= 0.000000
  1       0.131921315109
  2       0.446581081960
  3      -2.864266957956
  4       3.770533357932
  5      -1.557694665748
  6      -0.000000000004
  7      -0.000000000018
  8       0.000000000002
  9       0.000000000005
 10       0.000000000024
 11      -0.000000000001
 12      -0.000000000003
 13      -0.000000000011
 14      -0.000000000001
 15      -0.006111563190
 16      -0.000000015698
 17      -0.000019632244
 18      -0.010585542653
 19       0.000016927353
 20      -0.004379558337
 21      -0.000000011248
 22      -0.000014068520
 23      -0.007585620991
 24       0.000012130188
 25       0.000000000000
 26      -0.000000000000
 27       0.000000000000
 28       0.000000000000
 29      -0.000000000000
 30      -0.000000000000
 31      -0.000000000000
 Sym=     1a
 Ene= 4.96955003905057E+00
 Spin= Alpha
 Occup= 0.000000
  1      -0.000000000000
  2       0.000000000000
  3      -0.000000000000
  4       0.000000000000
  5      -0.000000000000
  6       0.000000000002
  7      -0.000000000000
  8      -0.000000000000
  9      -0.000000000001
 10       0.000000000003
 11       0.000000000001
 12       0.000000000000
 13      -0.000000000001
 14      -0.000000000000
 15      -0.000000000000
 16      -0.000000000000
 17      -0.000000000000
 18       0.000000000000
 19       0.000000000000
 20       0.000000000000
 21       0.000000000000
 22       0.000000000000
 23      -0.000000000000
 24      -0.000000000000
 25       0.237476356311
 26       0.923528904980
 27      -0.000468700449
 28      -0.183946743607
 29       0.001377421351
 30       0.238454793613
 31      -0.000363055465
 Sym=     1a
 Ene= 4.96955003905058E+00
 Spin= Alpha
 Occup= 0.000000
  1       0.000000000000
  2       0.000000000000
  3       0.000000000000
  4      -0.000000000000
  5       0.000000000000
  6      -0.000000000000
  7      -0.000000000000
  8      -0.000000000001
  9       0.000000000000
 10       0.000000000002
 11       0.000000000001
 12       0.000000000000
 13      -0.000000000001
 14      -0.000000000000
 15      -0.000000000000
 16       0.000000000000
 17       0.000000000000
 18       0.000000000000
 19       0.000000000000
 20       0.000000000000
 21      -0.000000000000
 22      -0.000000000000
 23      -0.000000000000
 24      -0.000000000000
 25       0.754057933909
 26      -0.290847296875
 27       0.001088947386
 28      -0.584091567513
 29       0.000592865398
 30      -0.075095100980
 31       0.000843494620
 Sym=     1a
 Ene= 5.01231692942538E+00
 Spin= Alpha
 Occup= 0.000000
  1       0.000000000000
  2       0.000000000000
  3      -0.000000000000
  4       0.000000000000
  5      -0.000000000000
  6       0.000000000004
  7       0.000000000000
  8       0.000000000005
  9      -0.000000000001
 10       0.000000000000
 11      -0.000000000001
 12       0.000000000001
 13      -0.000000000000
 14       0.000000000001
 15      -0.000000000000
 16       0.000000000000
 17      -0.000000000000
 18       0.000000000000
 19       0.000000000000
 20       0.000000000000
 21      -0.000000000000
 22       0.000000000000
 23      -0.000000000000
 24      -0.000000000000
 25      -0.001795731648
 26       0.000632167608
 27       0.790566782028
 28      -0.000463730520
 29      -0.000046883597
 30       0.001468811866
 31       0.612370936781
 Sym=     1a
 Ene= 5.01231692948218E+00
 Spin= Alpha
 Occup= 0.000000
  1       0.000000000000
  2      -0.000000000000
  3       0.000000000000
  4      -0.000000000000
  5       0.000000000000
  6      -0.000000000006
  7       0.000000000000
  8       0.000000000005
  9       0.000000000004
 10      -0.000000000000
 11      -0.000000000003
 12      -0.000000000002
 13       0.000000000000
 14       0.000000000002
 15      -0.000000000000
 16       0.000000000000
 17       0.000000000000
 18       0.000000000000
 19       0.000000000000
 20       0.000000000000
 21      -0.000000000000
 22      -0.000000000000
 23      -0.000000000000
 24      -0.000000000000
 25       0.000000085585
 26       0.001466178907
 27      -0.000038823180
 28      -0.001599074192
 29      -0.999997000526
 30      -0.001135787574
 31      -0.000026440083
 Sym=     1a
 Ene= 5.03826770910902E+00
 Spin= Alpha
 Occup= 0.000000
  1      -0.000000000000
  2      -0.000000000000
  3      -0.000000000000
  4       0.000000000000
  5      -0.000000000000
  6      -0.000097748340
  7       0.000000112475
  8       0.000037001980
  9      -0.009535497413
 10       0.000010971333
 11       0.003609598732
 12       0.003855401530
 13      -0.000004435939
 14      -0.001459436448
 15       0.000000000000
 16      -0.000000000000
 17      -0.000000000000
 18      -0.000000000000
 19       0.000000000000
 20      -0.000000000000
 21       0.000000000000
 22       0.000000000000
 23       0.000000000000
 24      -0.000000000000
 25      -0.216788424740
 26       0.233799550814
 27      -0.001089712429
 28      -0.279870583581
 29       0.001818750046
 30      -0.905504599594
 31       0.002489851588
 Sym=     1a
 Ene= 5.03826770910957E+00
 Spin= Alpha
 Occup= 0.000000
  1       0.000000000000
  2       0.000000000000
  3      -0.000000000000
  4       0.000000000000
  5      -0.000000000000
  6       0.000037002056
  7       0.000000061063
  8       0.000097748356
  9       0.003609606200
 10       0.000005956333
 11       0.009535499037
 12      -0.001459439467
 13      -0.000002408270
 14      -0.003855402187
 15       0.000000000000
 16       0.000000000000
 17      -0.000000000000
 18       0.000000000000
 19      -0.000000000000
 20      -0.000000000000
 21      -0.000000000000
 22       0.000000000000
 23      -0.000000000000
 24       0.000000000000
 25      -0.572691307016
 26      -0.088505420303
 27      -0.002314109687
 28      -0.739342454198
 29       0.000663221482
 30       0.342774950634
 31       0.000017492865
 Sym=     1a
 Ene= 5.04735111623170E+00
 Spin= Alpha
 Occup= 0.000000
  1       0.000000000000
  2       0.000000000000
  3      -0.000000000000
  4       0.000000000000
  5      -0.000000000000
  6       0.000000047139
  7       0.000058952544
  8      -0.000000054671
  9       0.000010206413
 10       0.012765201746
 11      -0.000011837338
 12      -0.000004123297
 13      -0.005157024428
 14       0.000004782176
 15       0.000000000000
 16       0.000000000000
 17       0.000000000000
 18       0.000000000000
 19       0.000000000000
 20      -0.000000000000
 21      -0.000000000000
 22      -0.000000000000
 23      -0.000000000000
 24      -0.000000000000
 25       0.001390897939
 26      -0.000489595702
 27      -0.612339038740
 28       0.001795640385
 29      -0.000002871419
 30       0.001896200625
 31       0.790526997401
 Sym=     1a
 Ene= 5.99710614112881E+00
 Spin= Alpha
 Occup= 0.000000
  1      -0.000000000002
  2      -0.000000000004
  3       0.000000000028
  4      -0.000000000037
  5       0.000000000016
  6      -0.000000000000
  7      -0.000000000000
  8       0.000000000000
  9      -0.000000000000
 10       0.000000000000
 11       0.000000000000
 12       0.000000000000
 13      -0.000000000000
 14      -0.000000000000
 15       1.007941442126
 16       0.000001072660
 17       0.001079271824
 18      -0.581935519722
 19       0.000930573899
 20      -0.516511214761
 21      -0.000000549676
 22      -0.000553063873
 23       0.298208020468
 24      -0.000476864857
 25       0.000000000000
 26       0.000000000000
 27       0.000000000000
 28      -0.000000000000
 29       0.000000000000
 30       0.000000000000
 31       0.000000000000
 Sym=     1a
 Ene= 5.99710614120514E+00
 Spin= Alpha
 Occup= 0.000000
  1       0.000000000000
  2       0.000000000000
  3      -0.000000000001
  4       0.000000000003
  5      -0.000000000002
  6      -0.000000000001
  7      -0.000000000000
  8      -0.000000000000
  9       0.000000000002
 10       0.000000000000
 11       0.000000000002
 12      -0.000000000002
 13      -0.000000000000
 14      -0.000000000002
 15      -0.000000181637
 16       1.163870654269
 17      -0.000930573121
 18       0.000001830716
 19       0.001079271397
 20       0.000000093078
 21      -0.596415843552
 22       0.000476864459
 23      -0.000000938135
 24      -0.000553063654
 25      -0.000000000000
 26       0.000000000000
 27       0.000000000000
 28       0.000000000000
 29       0.000000000000
 30      -0.000000000000
 31      -0.000000000000
 Sym=     1a
 Ene= 6.05906768899390E+00
 Spin= Alpha
 Occup= 0.000000
  1       0.000000000000
  2       0.000000000000
  3      -0.000000000010
  4       0.000000000014
  5       0.000000000003
  6      -0.000000000000
  7      -0.000000000000
  8       0.000000000000
  9       0.000000000000
 10       0.000000000000
 11      -0.000000000000
 12      -0.000000000000
 13      -0.000000000000
 14       0.000000000000
 15      -0.000964275881
 16       0.001404619584
 17       0.600362193661
 18      -0.002151143652
 19      -0.997071574987
 20       0.000491919733
 21      -0.000716558519
 22      -0.306271282724
 23       0.001097393426
 24       0.508650267229
 25      -0.000000000000
 26       0.000000000000
 27       0.000000000000
 28      -0.000000000000
 29      -0.000000000000
 30      -0.000000000000
 31       0.000000000000
 Sym=     1a
 Ene= 6.05906768899533E+00
 Spin= Alpha
 Occup= 0.000000
  1       0.000000000000
  2       0.000000000000
  3      -0.000000000003
  4       0.000000000005
  5       0.000000000001
  6       0.000000000000
  7      -0.000000000000
  8       0.000000000000
  9       0.000000000000
 10       0.000000000001
 11      -0.000000000000
 12      -0.000000000000
 13      -0.000000000001
 14       0.000000000000
 15      -0.001601452561
 16       0.000240483970
 17       0.997072580400
 18       0.000035443502
 19       0.600364610135
 20       0.000816971717
 21      -0.000122681500
 22      -0.508650780134
 23      -0.000018081299
 24      -0.306272515475
 25      -0.000000000000
 26      -0.000000000000
 27       0.000000000000
 28      -0.000000000000
 29       0.000000000000
 30       0.000000000000
 31      -0.000000000000
 Sym=     1a
 Ene= 6.08012295866976E+00
 Spin= Alpha
 Occup= 0.000000
  1       0.002619053147
  2       0.006079875465
  3      -0.032162723013
  4       0.027642209488
  5      -0.008182016380
  6      -0.000000000000
  7      -0.000000000000
  8      -0.000000000000
  9       0.000000000001
 10       0.000000000000
 11       0.000000000000
 12      -0.000000000001
 13      -0.000000000000
 14      -0.000000000000
 15       0.581881846554
 16       0.000001494521
 17       0.001869185261
 18       1.007849366956
 19      -0.001611652739
 20      -0.296394187683
 21      -0.000000761267
 22      -0.000952110211
 23      -0.513370018664
 24       0.000820930414
 25       0.000000000000
 26       0.000000000000
 27       0.000000000000
 28       0.000000000000
 29       0.000000000000
 30      -0.000000000000
 31      -0.000000000000
 Sym=     1a
 Ene= 4.25666583819823E+01
 Spin= Alpha
 Occup= 0.000000
  1       1.385594824275
  2      -1.666337038508
  3       1.324842377335
  4      -1.105323563062
  5       0.391129108109
  6      -0.000000000000
  7       0.000000000000
  8      -0.000000000000
  9       0.000000000000
 10       0.000000000000
 11       0.000000000000
 12       0.000000000000
 13       0.000000000000
 14       0.000000000000
 15      -0.000196494300
 16      -0.000000000505
 17      -0.000000631201
 18      -0.000340338262
 19       0.000000544235
 20       0.000062459236
 21       0.000000000160
 22       0.000000200639
 23       0.000108182620
 24      -0.000000172995
 25      -0.000000000000
 26       0.000000000000
 27      -0.000000000000
 28       0.000000000000
 29      -0.000000000000
 30      -0.000000000000
 31      -0.000000000000
 Sym=     1a
 Ene= -1.92205711091039E+01
 Spin=Beta
 Occup= 1.000000
  1      -0.435609572208
  2      -0.640343375790
  3      -0.029266441317
  4       0.014229248436
  5      -0.004529061610
  6       0.000000000000
  7      -0.000000000000
  8       0.000000000000
  9      -0.000000000000
 10       0.000000000000
 11      -0.000000000000
 12       0.000000000000
 13      -0.000000000000
 14       0.000000000000
 15       0.000276979267
 16       0.000000000709
 17       0.000000889784
 18       0.000479742375
 19      -0.000000767192
 20      -0.000032053236
 21      -0.000000000082
 22      -0.000000102978
 23      -0.000055517858
 24       0.000000088790
 25      -0.000000000000
 26       0.000000000000
 27      -0.000000000000
 28      -0.000000000000
 29      -0.000000000000
 30       0.000000000000
 31       0.000000000000
 Sym=     1a
 Ene= -8.57903934971564E-01
 Spin=Beta
 Occup= 1.000000
  1       0.108187594245
  2       0.254609359149
  3      -0.381455253556
  4      -0.501834321793
  5      -0.255872680922
  6      -0.000000000001
  7      -0.000000000001
  8      -0.000000000001
  9      -0.000000000000
 10      -0.000000000001
 11       0.000000000000
 12      -0.000000000001
 13       0.000000000000
 14      -0.000000000003
 15       0.002640502858
 16       0.000000006772
 17       0.000008482445
 18       0.004573487127
 19      -0.000007313751
 20       0.003372796903
 21       0.000000008665
 22       0.000010834454
 23       0.005841858181
 24      -0.000009341705
 25       0.000000000000
 26      -0.000000000000
 27      -0.000000000000
 28      -0.000000000000
 29      -0.000000000000
 30       0.000000000000
 31       0.000000000000
 Sym=     1a
 Ene= -3.33012944355860E-01
 Spin=Beta
 Occup= 1.000000
  1      -0.000000000000
  2      -0.000000000000
  3      -0.000000000001
  4       0.000000000006
  5      -0.000000000008
  6       0.000399070146
  7       0.499115266766
  8      -0.000462839182
  9       0.000317869520
 10       0.397561909196
 11      -0.000368663179
 12       0.000254743827
 13       0.318602546145
 14      -0.000295450376
 15      -0.000000000000
 16       0.000000000000
 17      -0.000000000000
 18      -0.000000000000
 19      -0.000000000000
 20       0.000000000000
 21       0.000000000000
 22       0.000000000000
 23       0.000000000000
 24       0.000000000000
 25       0.000001257501
 26      -0.000000442325
 27      -0.000553564836
 28       0.000001622964
 29      -0.000000002601
 30       0.000001714098
 31       0.000714649761
 Sym=     1a
 Ene= -1.80122605595560E-01
 Spin=Beta
 Occup= 0.000000
  1       0.000000000000