[Molden Format]
[Title]
 Molden file created by orca_2mkl for BaseName=orca_atom

[Atoms] AU
F    1   9          0.0000000000         0.0000000000         0.0000000000 
[GTO]
  1 0
s   6 1.0 
    35479.1004410000         1.0351654302
     5318.4728983000         1.9331170875
     1210.4810975000         3.3081679067
      342.8551814000         5.1904360265
      112.0194318100         7.1453715076
       40.7147402480         7.7853597648
s   2 1.0 
       16.0396781110         3.6156464853
        6.5038186740         1.1649992517
s   1 1.0 
        1.5440477509         0.9872011158
s   1 1.0 
        0.6122345286         0.4932856214
s   1 1.0 
        0.2402797970         0.2445952588
p   4 1.0 
       80.2339004830         4.2174077507
       18.5940107430         4.7174264054
        5.6867902653         4.0849101385
        1.9511006294         2.2998974220
p   1 1.0 
        0.6697021130         0.8635593174
p   1 1.0 
        0.2165130041         0.2105208284
d   1 1.0 
        3.1070000000        20.7284714039
d   1 1.0 
        0.8550000000         2.1672588463
f   1 1.0 
        1.9170000000        24.6547062912

[5D]
[7F]
[9G]
[MO]
 Sym=     1a
 Ene= -2.47824845614498E+01
 Spin= Alpha
 Occup= 1.000000
  1       0.425025664133
  2       0.649295159192
  3       0.031879665049
  4      -0.014927027561
  5       0.004748716728
  6       0.000000000000
  7      -0.000000000000
  8       0.000000000000
  9      -0.000000000000
 10       0.000000000000
 11      -0.000000000000
 12       0.000000000000
 13      -0.000000000000
 14       0.000000000000
 15       0.000141267312
 16      -0.000020792434
 17       0.000491435858
 18      -0.000245476197
 19      -0.000020809234
 20      -0.000039397768
 21       0.000005798810
 22      -0.000137055610
 23       0.000068460384
 24       0.000005803495
 25       0.000000000000
 26      -0.000000000000
 27       0.000000000000
 28      -0.000000000000
 29      -0.000000000000
 30       0.000000000000
 31       0.000000000000
 Sym=     1a
 Ene= -1.23082164711654E+00
 Spin= Alpha
 Occup= 1.000000
  1      -0.109812139203
  2      -0.267990249774
  3       0.395662571409
  4       0.523790966920
  5       0.221031545872
  6       0.000000000001
  7      -0.000000000001
  8       0.000000000002
  9       0.000000000000
 10      -0.000000000001
 11       0.000000000000
 12       0.000000000000
 13       0.000000000000
 14       0.000000000000
 15       0.001605436933
 16      -0.000236294096
 17       0.005584938052
 18      -0.002789722118
 19      -0.000236485025
 20       0.003448179029
 21      -0.000507500659
 22       0.011995398788
 23      -0.005991802232
 24      -0.000507910811
 25      -0.000000000000
 26       0.000000000000
 27      -0.000000000000
 28       0.000000000000
 29       0.000000000000
 30       0.000000000000
 31      -0.000000000000
 Sym=     1a
 Ene= -5.63425292112464E-01
 Spin= Alpha
 Occup= 1.000000
  1       0.000000000000
  2       0.000000000000
  3       0.000000000002
  4      -0.000000000010
  5       0.000000000009
  6      -0.016184110353
  7       0.382522507253
  8       0.382213605963
  9      -0.012769977118
 10       0.301827722151
 11       0.301583985293
 12      -0.006978796420
 13       0.164947398486
 14       0.164814196474
 15       0.000000000000
 16       0.000000000000
 17      -0.000000000000
 18       0.000000000000
 19       0.000000000000
 20      -0.000000000000
 21       0.000000000000
 22      -0.000000000000
 23       0.000000000000
 24       0.000000000000
 25      -0.001297181929
 26      -0.000199542563
 27       0.004716332185
 28      -0.004972213694
 29      -0.000421491880
 30      -0.000258164365
 31       0.002024251900
 Sym=     1a
 Ene= -4.74827926141338E-01
 Spin= Alpha
 Occup= 1.000000
  1      -0.000000000000
  2      -0.000000000000
  3      -0.000000000002
  4       0.000000000012
  5      -0.000000000011
  6      -0.527959926506
  7      -0.016531600036
  8      -0.005810521066
  9      -0.412639515064
 10      -0.012920680194
 11      -0.004541368398
 12      -0.268858133444
 13      -0.008418503944
 14      -0.002958905408
 15       0.000000000000
 16      -0.000000000000
 17       0.000000000000
 18      -0.000000000000
 19       0.000000000000
 20       0.000000000000
 21       0.000000000000
 22       0.000000000000
 23      -0.000000000000
 24       0.000000000000
 25      -0.000059996520
 26      -0.002222114176
 27      -0.000151491970
 28       0.000371939559
 29      -0.004692642150
 30      -0.002868335139
 31      -0.000333846191
 Sym=     1a
 Ene= -4.74827917270222E-01
 Spin= Alpha
 Occup= 1.000000
  1      -0.000000000000
  2      -0.000000000000
  3      -0.000000000003
  4       0.000000000015
  5      -0.000000000011
  6      -0.007571175346
  7       0.373180015743
  8      -0.373802203755
  9      -0.005917430454
 10       0.291667632983
 11      -0.292153919613
 12      -0.003855542925
 13       0.190038071295
 14      -0.190354911981
 15      -0.000000000000
 16      -0.000000000000
 17       0.000000000000
 18       0.000000000000
 19       0.000000000000
 20       0.000000000000
 21      -0.000000000000
 22       0.000000000000
 23       0.000000000000
 24       0.000000000000
 25      -0.003859746986
 26       0.000190741104
 27      -0.003689564975
 28      -0.001657448899
 29      -0.000067067063
 30      -0.000213563952
 31       0.002029336470
 Sym=     1a
 Ene= 4.41877598274623E-01
 Spin= Alpha
 Occup= 0.000000
  1      -0.057775681269
  2      -0.125317670002
  3      -0.059990434067
  4       1.795037834029
  5      -1.981555993589
  6      -0.000000000010
  7       0.000000000015
  8      -0.000000000015
  9      -0.000000000010
 10       0.000000000028
 11      -0.000000000012
 12       0.000000000033
 13      -0.000000000058
 14       0.000000000044
 15       0.001213062701
 16      -0.000178543222
 17       0.004219959594
 18      -0.002107904579
 19      -0.000178687502
 20      -0.000244258834
 21       0.000035950350
 22      -0.000849715886
 23       0.000424441626
 24       0.000035979465
 25      -0.000000000000
 26      -0.000000000000
 27      -0.000000000000
 28      -0.000000000000
 29      -0.000000000000
 30      -0.000000000000
 31       0.000000000000
 Sym=     1a
 Ene= 4.72865500802831E-01
 Spin= Alpha
 Occup= 0.000000
  1       0.000000000000
  2       0.000000000001
  3      -0.000000000000
  4      -0.000000000012
  5       0.000000000014
  6      -0.008832856141
  7       0.208769488857
  8       0.208600898831
  9      -0.017898341568
 10       0.423038218854
 11       0.422696598517
 12       0.036809975585
 13      -0.870027261007
 14      -0.869324679784
 15       0.000000000000
 16       0.000000000000
 17      -0.000000000000
 18       0.000000000000
 19       0.000000000000
 20       0.000000000000
 21       0.000000000000
 22       0.000000000000
 23       0.000000000000
 24       0.000000000000
 25      -0.000491912549
 26      -0.000075670469
 27       0.001788509606
 28      -0.001885543947
 29      -0.000159838025
 30      -0.000097901007
 31       0.000767628989
 Sym=     1a
 Ene= 5.02808790602965E-01
 Spin= Alpha
 Occup= 0.000000
  1       0.000000000002
  2       0.000000000003
  3       0.000000000001
  4      -0.000000000046
  5       0.000000000052
  6      -0.302502919717
  7      -0.010191074079
  8      -0.002609596970
  9      -0.623267540819
 10      -0.020997396518
 11      -0.005376758494
 12       1.227567207737
 13       0.041355805336
 14       0.010589911489
 15      -0.000000000000
 16      -0.000000000000
 17      -0.000000000000
 18       0.000000000000
 19       0.000000000000
 20       0.000000000000
 21      -0.000000000000
 22       0.000000000000
 23      -0.000000000000
 24       0.000000000000
 25      -0.000019615873
 26      -0.000927149813
 27      -0.000058018260
 28       0.000157466508
 29      -0.001957288851
 30      -0.001196133061
 31      -0.000142098634
 Sym=     1a
 Ene= 5.02808791146801E-01
 Spin= Alpha
 Occup= 0.000000
  1       0.000000000004
  2       0.000000000008
  3       0.000000000002
  4      -0.000000000106
  5       0.000000000120
  6      -0.005354859537
  7       0.213797817931
  8      -0.214197348572
  9      -0.011032984883
 10       0.440502328889
 11      -0.441325510814
 12       0.021730203224
 13      -0.867598860842
 14       0.869220174282
 15      -0.000000000000
 16       0.000000000000
 17      -0.000000000000
 18       0.000000000000
 19       0.000000000000
 20      -0.000000000000
 21      -0.000000000000
 22       0.000000000000
 23       0.000000000000
 24       0.000000000000
 25      -0.001610051847
 26       0.000076447523
 27      -0.001539194329
 28      -0.000690829574
 29      -0.000034552737
 30      -0.000093102633
 31       0.000846003556
 Sym=     1a
 Ene= 1.85714682501825E+00
 Spin= Alpha
 Occup= 0.000000
  1       0.003623872929
  2       0.010223947580
  3      -0.041679666779
  4       0.033734233243
  5      -0.019308430852
  6      -0.000000000000
  7       0.000000000000
  8      -0.000000000000
  9       0.000000000000
 10      -0.000000000001
 11       0.000000000000
 12      -0.000000000000
 13       0.000000000000
 14      -0.000000000000
 15       0.000186520475
 16      -0.000027453368
 17       0.000648859797
 18      -0.000324111342
 19      -0.000027475576
 20       0.248573702942
 21      -0.036585798085
 22       0.864729218360
 23      -0.431939452198
 24      -0.036615365769
 25       0.000000000000
 26       0.000000000000
 27       0.000000000000
 28       0.000000000000
 29       0.000000000000
 30       0.000000000000
 31      -0.000000000000
 Sym=     1a
 Ene= 1.87260860641128E+00
 Spin= Alpha
 Occup= 0.000000
  1       0.000000003207
  2       0.000000009919
  3      -0.000000040812
  4       0.000000037777
  5      -0.000000024019
  6       0.000000000000
  7       0.000000000000
  8       0.000000000000
  9      -0.000000000000
 10      -0.000000000000
 11      -0.000000000000
 12       0.000000000000
 13       0.000000000000
 14       0.000000000000
 15       0.000001852262
 16       0.000086018970
 17       0.000003640844
 18      -0.000006220089
 19       0.000086024841
 20       0.015192659455
 21       0.705719896041
 22       0.029888253797
 23      -0.051024610887
 24       0.705768122844
 25      -0.000000000000
 26       0.000000000000
 27      -0.000000000000
 28       0.000000000000
 29      -0.000000000000
 30      -0.000000000000
 31      -0.000000000000
 Sym=     1a
 Ene= 1.87260860738446E+00
 Spin= Alpha
 Occup= 0.000000
  1      -0.000000000074
  2      -0.000000000227
  3       0.000000000922
  4      -0.000000000830
  5       0.000000000527
  6      -0.000000000000
  7      -0.000000000000
  8      -0.000000000000
  9       0.000000000000
 10       0.000000000001
 11       0.000000000001
 12      -0.000000000000
 13      -0.000000000000
 14      -0.000000000000
 15      -0.000105534560
 16       0.000001519433
 17      -0.000000143344
 18      -0.000060840495
 19      -0.000003640033
 20      -0.865837545608
 21       0.012454987966
 22      -0.001176279844
 23      -0.499153765200
 24      -0.029853045001
 25      -0.000000000000
 26      -0.000000000000
 27       0.000000000000
 28      -0.000000000000
 29      -0.000000000000
 30       0.000000000000
 31      -0.000000000000
 Sym=     1a
 Ene= 1.92118209349983E+00
 Spin= Alpha
 Occup= 0.000000
  1       0.000000000083
  2       0.000000000557
  3      -0.000000005038
  4       0.000000009686
  5      -0.000000005830
  6      -0.000000000000
  7      -0.000000000000
  8       0.000000000000
  9       0.000000000000
 10       0.000000000001
 11      -0.000000000000
 12      -0.000000000000
 13      -0.000000000000
 14       0.000000000000
 15      -0.001106667696
 16       0.000056961135
 17       0.001279248355
 18       0.001914985940
 19       0.000051140635
 20       0.433490706271
 21      -0.022311618541
 22      -0.501091702041
 23      -0.750115526420
 24      -0.020031681650
 25      -0.000000000000
 26       0.000000000000
 27      -0.000000000000
 28      -0.000000000000
 29      -0.000000000000
 30       0.000000000000
 31      -0.000000000000
 Sym=     1a
 Ene= 1.92118209494008E+00
 Spin= Alpha
 Occup= 0.000000
  1       0.000000000004
  2       0.000000000021
  3      -0.000000000176
  4       0.000000000321
  5      -0.000000000191
  6       0.000000000000
  7      -0.000000000000
  8       0.000000000000
  9      -0.000000000001
 10       0.000000000000
 11      -0.000000000000
 12       0.000000000001
 13      -0.000000000000
 14       0.000000000000
 15      -0.000068022862
 16      -0.001807345608
 17       0.000002014312
 18      -0.000035128290
 19       0.001806061450
 20       0.026644462169
 21       0.707951814396
 22      -0.000789017913
 23       0.013759661239
 24      -0.707448808209
 25      -0.000000000000
 26       0.000000000000
 27       0.000000000000
 28       0.000000000000
 29      -0.000000000000
 30       0.000000000000
 31       0.000000000000
 Sym=     1a
 Ene= 2.99512045611703E+00
 Spin= Alpha
 Occup= 0.000000
  1       0.000000000003
  2       0.000000000009
  3      -0.000000000052
  4       0.000000000062
  5      -0.000000000021
  6       0.034930909753
  7      -0.825610907536
  8      -0.824944192486
  9      -0.048001155032
 10       1.134533063314
 11       1.133616880727
 12       0.021738261677
 13      -0.513795483582
 14      -0.513380572382
 15      -0.000000000000
 16       0.000000000000
 17      -0.000000000000
 18       0.000000000000
 19      -0.000000000000
 20       0.000000000000
 21       0.000000000000
 22       0.000000000000
 23       0.000000000000
 24       0.000000000000
 25      -0.000544525086
 26      -0.000083762114
 27       0.001979801925
 28      -0.002087215080
 29      -0.000176929931
 30      -0.000108369851
 31       0.000849732395
 Sym=     1a
 Ene= 3.06365752554079E+00
 Spin= Alpha
 Occup= 0.000000
  1      -0.000000000003
  2      -0.000000000011
  3       0.000000000067
  4      -0.000000000080
  5       0.000000000028
  6       1.170918343976
  7       0.036854320842
  8       0.012696518839
  9      -1.597665745228
 10      -0.050286069567
 11      -0.017323828490
 12       0.717490150327
 13       0.022582796079
 14       0.007779897929
 15       0.000000000000
 16       0.000000000000
 17       0.000000000000
 18      -0.000000000000
 19      -0.000000000000
 20       0.000000000000
 21      -0.000000000000
 22       0.000000000000
 23      -0.000000000000
 24       0.000000000000
 25      -0.000024899941
 26      -0.000936127138
 27      -0.000063461762
 28       0.000156845441
 29      -0.001976858817
 30      -0.001208321166
 31      -0.000140833330
 Sym=     1a
 Ene= 3.06365753271465E+00
 Spin= Alpha
 Occup= 0.000000
  1      -0.000000000005
  2      -0.000000000017
  3       0.000000000101
  4      -0.000000000123
  5       0.000000000044
  6       0.017060352077
  7      -0.827639190217
  8       0.829030476163
  9      -0.023278087813
 10       1.129276679721
 11      -1.131175027013
 12       0.010453875451
 13      -0.507142934342
 14       0.507995456525
 15       0.000000000000
 16      -0.000000000000
 17       0.000000000000
 18      -0.000000000000
 19      -0.000000000000
 20      -0.000000000000
 21      -0.000000000000
 22       0.000000000001
 23       0.000000000000
 24       0.000000000000
 25      -0.001625998373
 26       0.000080136405
 27      -0.001554314295
 28      -0.000698195663
 29      -0.000028707113
 30      -0.000090243773
 31       0.000854865064
 Sym=     1a
 Ene= 3.35420749652903E+00
 Spin= Alpha
 Occup= 0.000000
  1       0.131673832993
  2       0.460598106509
  3      -2.861315212032
  4       3.707265186318
  5      -1.508338486821
  6       0.000000000028
  7      -0.000000000014
  8       0.000000000046
  9      -0.000000000037
 10       0.000000000017
 11      -0.000000000060
 12       0.000000000016
 13      -0.000000000007
 14       0.000000000027
 15      -0.002807212291
 16       0.000413177883
 17      -0.009765631738
 18       0.004878013059
 19       0.000413511755
 20      -0.001628357016
 21       0.000239655574
 22      -0.005664663409
 23       0.002829549349
 24       0.000239849359
 25       0.000000000000
 26      -0.000000000000
 27      -0.000000000000
 28      -0.000000000000
 29      -0.000000000000
 30      -0.000000000000
 31       0.000000000000
 Sym=     1a
 Ene= 6.73476169890978E+00
 Spin= Alpha
 Occup= 0.000000
  1       0.000000000000
  2      -0.000000000000
  3       0.000000000000
  4      -0.000000000000
  5       0.000000000000
  6       0.000035468243
  7      -0.000838360198
  8      -0.000837683216
  9       0.000289174658
 10      -0.006834627517
 11      -0.006829108166
 12      -0.000117289818
 13       0.002772156069
 14       0.002769917406
 15      -0.000000000000
 16      -0.000000000000
 17      -0.000000000000
 18      -0.000000000000
 19      -0.000000000000
 20       0.000000000000
 21       0.000000000000
 22       0.000000000000
 23       0.000000000000
 24       0.000000000000
 25      -0.178123089170
 26      -0.027400516474
 27       0.647625353198
 28      -0.682761892304
 29      -0.057877817085
 30      -0.035450272194
 31       0.277961169366
 Sym=     1a
 Ene= 6.74497781470380E+00
 Spin= Alpha
 Occup= 0.000000
  1      -0.000000000000
  2      -0.000000000000
  3       0.000000000000
  4      -0.000000000000
  5       0.000000000000
  6      -0.000958037807
  7      -0.000029478326
  8      -0.000011059165
  9      -0.008013842641
 10      -0.000246609752
 11      -0.000092536163
 12       0.003248399177
 13       0.000099962067
 14       0.000037508569
 15       0.000000000000
 16      -0.000000000000
 17       0.000000000000
 18      -0.000000000000
 19       0.000000000000
 20      -0.000000000000
 21       0.000000000000
 22      -0.000000000000
 23       0.000000000000
 24      -0.000000000000
 25       0.010569809373
 26       0.373115679953
 27       0.025912223522
 28      -0.062244591911
 29       0.788002701036
 30       0.481681741434
 31       0.055800118519
 Sym=     1a
 Ene= 6.74497781981592E+00
 Spin= Alpha
 Occup= 0.000000
  1       0.000000000000
  2      -0.000000000000
  3       0.000000000000
  4      -0.000000000000
  5       0.000000000000
  6      -0.000013006921
  7       0.000677189441
  8      -0.000678287377
  9      -0.000108800865
 10       0.005664585616
 11      -0.005673770983
 12       0.000044102269
 13      -0.002296131363
 14       0.002299854599
 15       0.000000000000
 16      -0.000000000000
 17       0.000000000001
 18      -0.000000000000
 19       0.000000000000
 20      -0.000000000000
 21       0.000000000000
 22      -0.000000000000
 23       0.000000000000
 24      -0.000000000000
 25       0.648125735066
 26      -0.032314783130
 27       0.619536827611
 28       0.278368506916
 29       0.010660212906
 30       0.035494366972
 31      -0.340811478455
 Sym=     1a
 Ene= 6.77490789869405E+00
 Spin= Alpha
 Occup= 0.000000
  1       0.000000000000
  2      -0.000000000000
  3       0.000000000000
  4      -0.000000000000
  5       0.000000000000
  6      -0.000000002946
  7       0.000000000512
  8       0.000000000546
  9       0.000000006771
 10       0.000000000435
 11       0.000000000351
 12      -0.000000001784
 13      -0.000000000196
 14      -0.000000000175
 15       0.000000000000
 16      -0.000000000000
 17       0.000000000000
 18       0.000000000000
 19      -0.000000000000
 20      -0.000000000000
 21       0.000000000000
 22      -0.000000000000
 23      -0.000000000000
 24       0.000000000000
 25       0.683952418550
 26      -0.036554650856
 27      -0.279592175072
 28      -0.174759822054
 29      -0.014918914243
 30      -0.044897336496
 31       0.648013674291
 Sym=     1a
 Ene= 6.77490790034414E+00
 Spin= Alpha
 Occup= 0.000000
  1       0.000000000000
  2      -0.000000000000
  3       0.000000000000
  4      -0.000000000000
  5       0.000000000000
  6      -0.000000000024
  7       0.000000002062
  8      -0.000000002100
  9       0.000000000062
 10      -0.000000004894
 11       0.000000004886
 12      -0.000000000017
 13       0.000000001309
 14      -0.000000001302
 15      -0.000000000000
 16      -0.000000000000
 17      -0.000000000000
 18      -0.000000000000
 19      -0.000000000000
 20       0.000000000000
 21       0.000000000000
 22       0.000000000000
 23       0.000000000000
 24       0.000000000000
 25      -0.041899884553
 26      -0.789103021504
 27      -0.016352770726
 28       0.010849999062
 29      -0.000785239683
 30       0.611340509903
 31       0.037918991131
 Sym=     1a
 Ene= 6.82584439306801E+00
 Spin= Alpha
 Occup= 0.000000
  1       0.000000000000
  2       0.000000000000
  3      -0.000000000000
  4       0.000000000000
  5      -0.000000000000
  6       0.000000000026
  7       0.000000000609
  8      -0.000000000608
  9      -0.000000000017
 10      -0.000000000452
 11       0.000000000446
 12       0.000000000005
 13       0.000000000130
 14      -0.000000000127
 15      -0.000000000000
 16       0.000000000000
 17       0.000000000000
 18       0.000000000000
 19      -0.000000000000
 20       0.000000000000
 21      -0.000000000000
 22      -0.000000000000
 23      -0.000000000000
 24       0.000000000000
 25      -0.279125496523
 26       0.028402334711
 27       0.342783129777
 28       0.649418980078
 29       0.000726386263
 30      -0.023136189518
 31       0.617657808116
 Sym=     1a
 Ene= 6.82584439309619E+00
 Spin= Alpha
 Occup= 0.000000
  1       0.000000000000
  2      -0.000000000000
  3       0.000000000000
  4      -0.000000000000
  5       0.000000000000
  6      -0.000000000898
  7       0.000000000009
  8      -0.000000000028
  9       0.000000000216
 10       0.000000000156
 11       0.000000000176
 12      -0.000000000008
 13      -0.000000000064
 14      -0.000000000069
 15      -0.000000000000
 16      -0.000000000000
 17       0.000000000000
 18       0.000000000000
 19       0.000000000000
 20       0.000000000000
 21       0.000000000000
 22      -0.000000000000
 23      -0.000000000000
 24      -0.000000000000
 25      -0.024770188724
 26      -0.483897062669
 27       0.009839504671
 28       0.005702607967
 29       0.612645527369
 30      -0.623832178094
 31      -0.024486859130
 Sym=     1a
 Ene= 8.07249101835422E+00
 Spin= Alpha
 Occup= 0.000000
  1       0.002330239576
  2       0.005697724119
  3      -0.029426707488
  4       0.025306641341
  5      -0.007461957266
  6       0.000000000000
  7       0.000000000000
  8       0.000000000000
  9      -0.000000000000
 10      -0.000000000000
 11       0.000000000000
 12       0.000000000000
 13       0.000000000000
 14      -0.000000000000
 15       0.288181540056
 16      -0.042416098510
 17       1.002515472326
 18      -0.500764883304
 19      -0.042450381887
 20      -0.145798158641
 21       0.021459352088
 22      -0.507197337249
 23       0.253349322394
 24       0.021476696904
 25      -0.000000000000
 26      -0.000000000000
 27      -0.000000000000
 28      -0.000000000000
 29      -0.000000000000
 30      -0.000000000000
 31       0.000000000000
 Sym=     1a
 Ene= 8.09637342347482E+00
 Spin= Alpha
 Occup= 0.000000
  1       0.000000001240
  2       0.000000002293
  3      -0.000000010431
  4       0.000000006261
  5      -0.000000001184
  6       0.000000000000
  7      -0.000000000000
  8      -0.000000000000
  9      -0.000000000000
 10      -0.000000000000
 11      -0.000000000000
 12       0.000000000000
 13       0.000000000000
 14       0.000000000000
 15       0.015820642667
 16       0.817810800147
 17       0.034632543949
 18      -0.060157004586
 19       0.817779458771
 20      -0.007993636430
 21      -0.413212169933
 22      -0.017498653899
 23       0.030395302437
 24      -0.413196334191
 25       0.000000000000
 26      -0.000000000000
 27       0.000000000000
 28      -0.000000000000
 29       0.000000000000
 30       0.000000000000
 31       0.000000000000
 Sym=     1a
 Ene= 8.09637343662115E+00
 Spin= Alpha
 Occup= 0.000000
  1      -0.000000000030
  2      -0.000000000056
  3       0.000000000253
  4      -0.000000000151
  5       0.000000000029
  6      -0.000000000000
  7       0.000000000000
  8       0.000000000000
  9       0.000000000000
 10      -0.000000000000
 11      -0.000000000000
 12      -0.000000000000
 13       0.000000000000
 14       0.000000000000
 15      -1.003360123965
 16       0.012978247311
 17      -0.001424705792
 18      -0.578312014483
 19      -0.036048993204
 20       0.506963974301
 21      -0.006557470308
 22       0.000719855697
 23       0.292201523907
 24       0.018214338812
 25       0.000000000000
 26       0.000000000000
 27      -0.000000000000
 28       0.000000000000
 29       0.000000000000
 30      -0.000000000000
 31       0.000000000000
 Sym=     1a
 Ene= 8.16944088662564E+00
 Spin= Alpha
 Occup= 0.000000
  1       0.000000000373
  2       0.000000001055
  3      -0.000000005259
  4       0.000000004581
  5      -0.000000001634
  6      -0.000000000000
  7       0.000000000000
  8      -0.000000000000
  9       0.000000000000
 10      -0.000000000000
 11       0.000000000000
 12      -0.000000000000
 13       0.000000000000
 14      -0.000000000000
 15      -0.501657628736
 16       0.025595584514
 17       0.579879555569
 18       0.868053079098
 19       0.023406028720
 20       0.252470025281
 21      -0.012881529775
 22      -0.291836897392
 23      -0.436866440926
 24      -0.011779588581
 25       0.000000000000
 26       0.000000000000
 27      -0.000000000000
 28      -0.000000000000
 29      -0.000000000000
 30       0.000000000000
 31      -0.000000000000
 Sym=     1a
 Ene= 8.16944088880391E+00
 Spin= Alpha
 Occup= 0.000000
  1       0.000000000012
  2       0.000000000033
  3      -0.000000000163
  4       0.000000000142
  5      -0.000000000051
  6       0.000000000000
  7      -0.000000000000
  8       0.000000000000
  9      -0.000000000000
 10       0.000000000000
 11      -0.000000000000
 12       0.000000000000
 13      -0.000000000000
 14       0.000000000000
 15      -0.030696818863
 16      -0.819271382330
 17       0.000754169240
 18      -0.016161271280
 19       0.818675852606
 20       0.015448835937
 21       0.412315999375
 22      -0.000379551937
 23       0.008133508193
 24      -0.412016286199
 25      -0.000000000000
 26       0.000000000000
 27       0.000000000000
 28       0.000000000000
 29      -0.000000000000
 30       0.000000000000
 31       0.000000000000
 Sym=     1a
 Ene= 5.60366392929164E+01
 Spin= Alpha
 Occup= 0.000000
  1      -1.388028876507
  2       1.667648988080
  3      -1.328611969985
  4       1.093704715268
  5      -0.382126348367
  6       0.000000000000
  7      -0.000000000000
  8       0.000000000000
  9      -0.000000000000
 10      -0.000000000000
 11      -0.000000000000
 12       0.000000000000
 13       0.000000000000
 14       0.000000000000
 15       0.000083738648
 16      -0.000012324910
 17       0.000291307000
 18      -0.000145510267
 19      -0.000012334871
 20      -0.000024957460
 21       0.000003673257
 22      -0.000086821077
 23       0.000043367867
 24       0.000003676226
 25       0.000000000000
 26      -0.000000000000
 27       0.000000000000
 28      -0.000000000000
 29      -0.000000000000
 30       0.000000000000
 31       0.000000000000
 Sym=     1a
 Ene= -2.47507656764414E+01
 Spin=Beta
 Occup= 1.000000
  1       0.425565924824
  2       0.649419069932
  3       0.030134828258
  4      -0.013908560972
  5       0.004367330294
  6       0.000000000000
  7      -0.000000000000
  8       0.000000000000
  9      -0.000000000000
 10       0.000000000000
 11      -0.000000000000
 12       0.000000000000
 13      -0.000000000000
 14       0.000000000000
 15      -0.000126128998
 16       0.000018588423
 17      -0.000438779566
 18       0.000219171499
 19       0.000018603381
 20       0.000013736337
 21      -0.000002029357
 22       0.000047787484
 23      -0.000023869469
 24      -0.000002030977
 25       0.000000000000
 26      -0.000000000000
 27       0.000000000000
 28      -0.000000000000
 29       0.000000000000
 30       0.000000000000
 31       0.000000000000
 Sym=     1a
 Ene= -1.13899413615358E+00
 Spin=Beta
 Occup= 1.000000
  1       0.108115708672
  2       0.262996226122
  3      -0.382726109387
  4      -0.512951784643
  5      -0.245493043716
  6      -0.000000000001
  7      -0.000000000000
  8      -0.000000000001
  9       0.000000000000
 10      -0.000000000000
 11       0.000000000000
 12      -0.000000000000
 13       0.000000000000
 14      -0.000000000001
 15       0.001032690498
 16      -0.000152210812
 17       0.003592548349
 18      -0.001794483354
 19      -0.000152333162
 20       0.001241379481
 21      -0.000182685989
 22       0.004318460565
 23      -0.002157109201
 24      -0.000182833652
 25       0.000000000000
 26      -0.000000000000
 27       0.000000000000
 28      -0.000000000000
 29       0.000000000000
 30       0.000000000000
 31       0.000000000000
 Sym=     1a
 Ene= -4.43538628450301E-01
 Spin=Beta
 Occup= 1.000000
  1      -0.000000000000
  2      -0.000000000001
  3      -0.000000000004
  4       0.000000000022
  5      -0.000000000021
  6      -0.008938729639
  7       0.367597784801
  8      -0.368273456577
  9      -0.006999851881
 10       0.287863050044
 11      -0.288392124085
 12      -0.004910674011
 13       0.201947335224
 14      -0.202318513680
 15       0.000000000000
 16      -0.000000000000
 17      -0.000000000000
 18      -0.000000000000
 19       0.000000000000
 20       0.000000000000
 21      -0.000000000000
 22       0.000000000000
 23       0.000000000000
 24      -0.000000000000
 25       0.000360672781
 26      -0.000017195186
 27       0.000344782097
 28       0.000154766065
 29       0.000007514702
 30       0.000020689445
 31      -0.000189541661
 Sym=     1a
 Ene= -4.43538477947534E-01
 Spin=Beta
 Occup= 1.000000
  1      -0.000000000000