
                                 *****************
                                 * O   R   C   A *
                                 *****************

           --- An Ab Initio, DFT and Semiempirical electronic structure package ---

                  #######################################################
                  #                        -***-                        #
                  #          Department of theory and spectroscopy      #
                  #               Directorship: Frank Neese             #
                  #        Max Planck Institute fuer Kohlenforschung    #
                  #                Kaiser Wilhelm Platz 1               #
                  #                 D-45470 Muelheim/Ruhr               #
                  #                      Germany                        #
                  #                                                     #
                  #                  All rights reserved                #
                  #                        -***-                        #
                  #######################################################


                         Program Version 4.2.1 -  RELEASE  -


 With contributions from (in alphabetic order):
   Daniel Aravena         : Magnetic Suceptibility
   Michael Atanasov       : Ab Initio Ligand Field Theory (pilot matlab implementation)
   Alexander A. Auer      : GIAO ZORA, VPT2
   Ute Becker             : Parallelization
   Giovanni Bistoni       : ED, misc. LED, open-shell LED, HFLD
   Martin Brehm           : Molecular dynamics
   Dmytro Bykov           : SCF Hessian
   Vijay G. Chilkuri      : MRCI spin determinant printing, contributions to CSF-ICE
   Dipayan Datta          : RHF DLPNO-CCSD density
   Achintya Kumar Dutta   : EOM-CC, STEOM-CC
   Dmitry Ganyushin       : Spin-Orbit,Spin-Spin,Magnetic field MRCI
   Miquel Garcia          : C-PCM Hessian, Gaussian charge scheme
   Yang Guo               : DLPNO-NEVPT2, CIM, IAO-localization
   Andreas Hansen         : Spin unrestricted coupled pair/coupled cluster methods
   Benjamin Helmich-Paris : CASSCF linear response (MC-RPA)
   Lee Huntington         : MR-EOM, pCC
   Robert Izsak           : Overlap fitted RIJCOSX, COSX-SCS-MP3, EOM
   Christian Kollmar      : KDIIS, OOCD, Brueckner-CCSD(T), CCSD density
   Simone Kossmann        : Meta GGA functionals, TD-DFT gradient, OOMP2, MP2 Hessian
   Martin Krupicka        : AUTO-CI
   Lucas Lang             : DCDCAS
   Dagmar Lenk            : GEPOL surface, SMD
   Dimitrios Liakos       : Extrapolation schemes; Compound Job, initial MDCI parallelization
   Dimitrios Manganas     : Further ROCIS development; embedding schemes
   Dimitrios Pantazis     : SARC Basis sets
   Taras Petrenko         : DFT Hessian,TD-DFT gradient, ASA, ECA, R-Raman, ABS, FL, XAS/XES, NRVS
   Peter Pinski           : DLPNO-MP2, DLPNO-MP2 Gradient
   Christoph Reimann      : Effective Core Potentials
   Marius Retegan         : Local ZFS, SOC
   Christoph Riplinger    : Optimizer, TS searches, QM/MM, DLPNO-CCSD(T), (RO)-DLPNO pert. Triples
   Tobias Risthaus        : Range-separated hybrids, TD-DFT gradient, RPA, STAB
   Michael Roemelt        : Original ROCIS implementation
   Masaaki Saitow         : Open-shell DLPNO-CCSD energy and density
   Barbara Sandhoefer     : DKH picture change effects
   Avijit Sen             : IP-ROCIS
   Kantharuban Sivalingam : CASSCF convergence, NEVPT2, FIC-MRCI
   Bernardo de Souza      : ESD, SOC TD-DFT
   Georgi Stoychev        : AutoAux, RI-MP2 NMR
   Willem Van den Heuvel  : Paramagnetic NMR
   Boris Wezisla          : Elementary symmetry handling
   Frank Wennmohs         : Technical directorship


 We gratefully acknowledge several colleagues who have allowed us to
 interface, adapt or use parts of their codes:
   Stefan Grimme, W. Hujo, H. Kruse,             : VdW corrections, initial TS optimization,
                  C. Bannwarth                     DFT functionals, gCP, sTDA/sTD-DF
   Ed Valeev, F. Pavosevic, A. Kumar             : LibInt (2-el integral package), F12 methods
   Garnet Chan, S. Sharma, J. Yang, R. Olivares  : DMRG
   Ulf Ekstrom                                   : XCFun DFT Library
   Mihaly Kallay                                 : mrcc  (arbitrary order and MRCC methods)
   Andreas Klamt, Michael Diedenhofen            : otool_cosmo (COSMO solvation model)
   Jiri Pittner, Ondrej Demel                    : Mk-CCSD
   Frank Weinhold                                : gennbo (NPA and NBO analysis)
   Christopher J. Cramer and Donald G. Truhlar   : smd solvation model
   Lars Goerigk                                  : TD-DFT with DH, B97 family of functionals
   V. Asgeirsson, H. Jonsson                     : NEB implementation
   FAccTs GmbH                                   : IRC, NEB, NEB-TS, Multilevel, MM, QM/MM, CI optimization
   S Lehtola, MJT Oliveira, MAL Marques          : LibXC Library


 Your calculation uses the libint2 library for the computation of 2-el integrals
 For citations please refer to: http://libint.valeyev.net

 Your ORCA version has been built with support for libXC version: 4.2.3
 For citations please refer to: https://tddft.org/programs/libxc/

 This ORCA versions uses:
   CBLAS   interface :  Fast vector & matrix operations
   LAPACKE interface :  Fast linear algebra routines
   SCALAPACK package :  Parallel linear algebra routines


SCAN-COORDS
----- Orbital basis set information -----
Your calculation utilizes the basis: def2-TZVP
   F. Weigend and R. Ahlrichs, Phys. Chem. Chem. Phys. 7, 3297 (2005).

================================================================================
                                        WARNINGS
                       Please study these warnings very carefully!
================================================================================


INFO   : the flag for use of LIBINT has been found!

================================================================================
                                       INPUT FILE
================================================================================
NAME = orca_atom.inp
|  1> ! UKS B3LYP def2-TZVP Grid4 TightSCF NOFINALGRID KeepDens
|  2> %output PrintLevel Mini Print[ P_Mulliken ] 1 Print[P_AtCharges_M] 1 end
|  3> %pal nprocs 4 end
|  4> %coords
|  5>     CTyp xyz
|  6>     Charge 0
|  7>     Mult 2
|  8>     Units Angs
|  9>     coords
| 10>         F 0.0 0.0 0.0
| 11>     end
| 12> end
| 13> 
| 14>                          ****END OF INPUT****
================================================================================

                       ****************************
                       * Single Point Calculation *
                       ****************************

---------------------------------
CARTESIAN COORDINATES (ANGSTROEM)
---------------------------------
  F      0.000000    0.000000    0.000000

----------------------------
CARTESIAN COORDINATES (A.U.)
----------------------------
  NO LB      ZA    FRAG     MASS         X           Y           Z
   0 F     9.0000    0    18.998    0.000000    0.000000    0.000000


Checking for AutoStart:
The File: orca_atom.gbw exists
Trying to determine its content:
     ... Fine, the file contains calculation information
     ... Fine, the calculation information was read
     ... Fine, the file contains a basis set
     ... Fine, the basis set was read
     ... Fine, the file contains a geometry
     ... Fine, the geometry was read
     ... Fine, the file contains a set of orbitals
     ... Fine, the orbitals can be read
     => possible old guess file was deleted
     => GBW file was renamed to GES file
     => GES file is set as startup file
     => Guess is set to MORead
     ... now leaving AutoStart



           ************************************************************
           *        Program running with 4 parallel MPI-processes     *
           *              working on a common directory               *
           ************************************************************


           ************************************************************
           *        Program running with 4 parallel MPI-processes     *
           *              working on a common directory               *
           ************************************************************

Diagonalization of the overlap matrix:
Smallest eigenvalue                        ... 3.088e-02
Time for diagonalization                   ...    0.001 sec
Threshold for overlap eigenvalues          ... 1.000e-08
Number of eigenvalues below threshold      ... 0
Time for construction of square roots      ...    0.000 sec
Total time needed                          ...    0.001 sec

-------------------
DFT GRID GENERATION
-------------------

General Integration Accuracy     IntAcc      ...  4.670
Radial Grid Type                 RadialGrid  ... Gauss-Chebyshev
Angular Grid (max. acc.)         AngularGrid ... Lebedev-302
Angular grid pruning method      GridPruning ... 3 (G Style)
Weight generation scheme         WeightScheme... Becke
Basis function cutoff            BFCut       ...    1.0000e-11
Integration weight cutoff        WCut        ...    1.0000e-14
Grids for H and He will be reduced by one unit

# of grid points (after initial pruning)     ...   6272 (   0.0 sec)
# of grid points (after weights+screening)   ...   6272 (   0.0 sec)
Grid point division into batches done        ...    0.0 sec
Reduced shell lists constructed in    0.0 sec

Total number of grid points                  ...     6272
Total number of batches                      ...       99
Average number of points per batch           ...       63
Average number of grid points per atom       ...     6272
Average number of shells per batch           ...     2.85 (25.87%)
Average number of basis functions per batch  ...     7.62 (24.57%)
Average number of large shells per batch     ...     2.12 (74.32%)
Average number of large basis fcns per batch ...     5.19 (68.18%)
Maximum spatial batch extension              ...  21.92, 16.88, 15.22 au
Average spatial batch extension              ...   3.12,  2.90,  2.69 au

Time for grid setup =    0.046 sec

--------------
SCF ITERATIONS
--------------
ITER       Energy         Delta-E        Max-DP      RMS-DP      [F,P]     Damp
               ***  Starting incremental Fock matrix formation  ***
  0    -99.7362873816   0.000000000000 0.00000019  0.00000002  0.0000008 0.7000
                 **** Energy Check signals convergence ****

               *****************************************************
               *                     SUCCESS                       *
               *           SCF CONVERGED AFTER   1 CYCLES          *
               *****************************************************

Total Energy       :          -99.73628738 Eh           -2713.96235 eV
  Last Energy change         ...   -5.5707e-12  Tolerance :   1.0000e-08
  Last MAX-Density change    ...    6.6887e-08  Tolerance :   1.0000e-07
             **** THE GBW FILE WAS UPDATED (orca_atom.gbw) ****
             **** DENSITY FILE WAS UPDATED (orca_atom.scfp) ****
             **** ENERGY FILE WAS UPDATED (orca_atom.en.tmp) ****
----------------------
UHF SPIN CONTAMINATION
----------------------

Warning: in a DFT calculation there is little theoretical justification to 
         calculate <S**2> as in Hartree-Fock theory. We will do it anyways
         but you should keep in mind that the values have only limited relevance

Expectation value of <S**2>     :     0.751521
Ideal value S*(S+1) for S=0.5   :     0.750000
Deviation                       :     0.001521

             **** THE GBW FILE WAS UPDATED (orca_atom.gbw) ****
             **** DENSITY FILE WAS UPDATED (orca_atom.scfp) ****
----------------
ORBITAL ENERGIES
----------------
                 SPIN UP ORBITALS
  NO   OCC          E(Eh)            E(eV) 
   0   1.0000     -24.782485      -674.3657 
   1   1.0000      -1.230822       -33.4924 
   2   1.0000      -0.563425       -15.3316 
   3   1.0000      -0.474828       -12.9207 
   4   1.0000      -0.474828       -12.9207 
   5   0.0000       0.441878        12.0241 
   6   0.0000       0.472866        12.8673 
   7   0.0000       0.502809        13.6821 
   8   0.0000       0.502809        13.6821 
   9   0.0000       1.857147        50.5355 
  10   0.0000       1.872609        50.9563 
  11   0.0000       1.872609        50.9563 
  12   0.0000       1.921182        52.2780 
  13   0.0000       1.921182        52.2780 
  14   0.0000       2.995120        81.5014 
  15   0.0000       3.063658        83.3664 
  16   0.0000       3.063658        83.3664 
  17   0.0000       3.354207        91.2726 
  18   0.0000       6.734762       183.2622 
  19   0.0000       6.744978       183.5402 
  20   0.0000       6.744978       183.5402 
  21   0.0000       6.774908       184.3546 
  22   0.0000       6.774908       184.3546 
  23   0.0000       6.825844       185.7407 
  24   0.0000       6.825844       185.7407 
  25   0.0000       8.072491       219.6636 
  26   0.0000       8.096373       220.3135 
  27   0.0000       8.096373       220.3135 
  28   0.0000       8.169441       222.3018 
  29   0.0000       8.169441       222.3018 
  30   0.0000      56.036639      1524.8345 

                 SPIN DOWN ORBITALS
  NO   OCC          E(Eh)            E(eV) 
   0   1.0000     -24.750766      -673.5026 
   1   1.0000      -1.138994       -30.9936 
   2   1.0000      -0.443539       -12.0693 
   3   1.0000      -0.443538       -12.0693 
   4   0.0000      -0.268924        -7.3178 
   5   0.0000       0.461474        12.5573 
   6   0.0000       0.510917        13.9027 
   7   0.0000       0.510917        13.9027 
   8   0.0000       0.532382        14.4868 
   9   0.0000       1.928657        52.4814 
  10   0.0000       1.928657        52.4814 
  11   0.0000       1.934487        52.6401 
  12   0.0000       1.934487        52.6401 
  13   0.0000       1.945142        52.9300 
  14   0.0000       3.086427        83.9859 
  15   0.0000       3.086427        83.9860 
  16   0.0000       3.125214        85.0414 
  17   0.0000       3.408279        92.7440 
  18   0.0000       6.828415       185.8106 
  19   0.0000       6.828416       185.8106 
  20   0.0000       6.831461       185.8935 
  21   0.0000       6.831461       185.8935 
  22   0.0000       6.834191       185.9678 
  23   0.0000       6.834191       185.9678 
  24   0.0000       6.842463       186.1929 
  25   0.0000       8.187238       222.7861 
  26   0.0000       8.187238       222.7861 
  27   0.0000       8.208447       223.3632 
  28   0.0000       8.208449       223.3632 
  29   0.0000       8.238155       224.1716 
  30   0.0000      56.069929      1525.7403 

                    ********************************
                    * MULLIKEN POPULATION ANALYSIS *
                    ********************************

--------------------------------------------
MULLIKEN ATOMIC CHARGES AND SPIN POPULATIONS
--------------------------------------------
   0 F :   -0.000000    1.000000
Sum of atomic charges         :   -0.0000000
Sum of atomic spin populations:    1.0000000

Total SCF time: 0 days 0 hours 0 min 0 sec 

-------------------------   --------------------
FINAL SINGLE POINT ENERGY       -99.736287381578
-------------------------   --------------------


                            ***************************************
                            *     ORCA property calculations      *
                            ***************************************

                                    ---------------------
                                    Active property flags
                                    ---------------------
   (+) Dipole Moment


------------------------------------------------------------------------------
                       ORCA ELECTRIC PROPERTIES CALCULATION
------------------------------------------------------------------------------

Dipole Moment Calculation                       ... on
Quadrupole Moment Calculation                   ... off
Polarizability Calculation                      ... off
GBWName                                         ... orca_atom.gbw
Electron density file                           ... orca_atom.scfp
The origin for moment calculation is the CENTER OF MASS  = ( 0.000000,  0.000000  0.000000)

-------------
DIPOLE MOMENT
-------------
                                X             Y             Z
Electronic contribution:     -0.00000       0.00000      -0.00000
Nuclear contribution   :      0.00000       0.00000       0.00000
                        -----------------------------------------
Total Dipole Moment    :     -0.00000       0.00000      -0.00000
                        -----------------------------------------
Magnitude (a.u.)       :      0.00000
Magnitude (Debye)      :      0.00000



--------------------
Rotational spectrum 
--------------------
 
Rotational constants in cm-1:     0.000000     0.000000     0.000000 
Rotational constants in MHz :     0.000000     0.000000     0.000000 

 Dipole components along the rotational axes: 
x,y,z [a.u.] :    -0.000000     0.000000    -0.000000 
x,y,z [Debye]:    -0.000000     0.000000    -0.000000 

 

Timings for individual modules:

Sum of individual times         ...        1.384 sec (=   0.023 min)
GTO integral calculation        ...        0.624 sec (=   0.010 min)  45.1 %
SCF iterations                  ...        0.760 sec (=   0.013 min)  54.9 %
                             ****ORCA TERMINATED NORMALLY****
TOTAL RUN TIME: 0 days 0 hours 0 minutes 1 seconds 797 msec
