[Molden Format]
[Title]
 Molden file created by orca_2mkl for BaseName=orca_atom

[Atoms] AU
H    1   1          0.0000000000         0.0000000000         0.0000000000 
[GTO]
  1 0
s   3 1.0 
       34.0613410000         0.2556299169
        5.1235746000         0.4613599649
        1.1646626000         0.6811214941
s   1 1.0 
        0.3272304100         0.3083545312
s   1 1.0 
        0.1030724100         0.1296483265
p   1 1.0 
        0.8000000000         1.0784563492

[5D]
[7F]
[9G]
[MO]
 Sym=     1a
 Ene= -3.18221765115384E-01
 Spin= Alpha
 Occup= 1.000000
  1       0.248309179961
  2       0.465811733320
  3       0.417240794630
  4       0.000000000000
  5       0.000000000000
  6       0.000000000000
 Sym=     1a
 Ene= 2.49399175246104E-01
 Spin= Alpha
 Occup= 0.000000
  1      -0.140969334981
  2      -1.274764249857
  3       1.527592782119
  4      -0.000000000000
  5      -0.000000000000
  6      -0.000000000000
 Sym=     1a
 Ene= 1.35341898242758E+00
 Spin= Alpha
 Occup= 0.000000
  1       0.000000000000
  2      -0.000000000000
  3       0.000000000000
  4      -0.369958145588
  5      -0.445458346750
  6       0.815290029268
 Sym=     1a
 Ene= 1.35341898242758E+00
 Spin= Alpha
 Occup= 0.000000
  1      -0.000000000000
  2      -0.000000000000
  3       0.000000000000
  4      -0.727838113854
  5       0.684358649988
  6       0.043645368692
 Sym=     1a
 Ene= 1.35341898243033E+00
 Spin= Alpha
 Occup= 0.000000
  1       0.000000000002
  2      -0.000000000002
  3       0.000000000001
  4      -0.577392977559
  5      -0.577252197481
  6      -0.577405619966
 Sym=     1a
 Ene= 2.15968005222573E+00
 Spin= Alpha
 Occup= 0.000000
  1       1.531497051422
  2      -1.919216333423
  3       0.842880923475
  4       0.000000000001
  5       0.000000000001
  6       0.000000000001
 Sym=     1a
 Ene= -2.83402222222184E-02
 Spin=Beta
 Occup= 0.000000
  1      -0.149709629844
  2      -0.125090872918
  3      -0.824937710095
  4       0.000000000000
  5       0.000000000000
  6       0.000000000000
 Sym=     1a
 Ene= 4.09483732700788E-01
 Spin=Beta
 Occup= 0.000000
  1      -0.104978814663
  2      -1.480519358237
  3       1.390793764423
  4       0.000000000000
  5       0.000000000000
  6       0.000000000000
 Sym=     1a
 Ene= 1.60491249536521E+00
 Spin=Beta
 Occup= 0.000000
  1      -0.000000000000
  2      -0.000000000000
  3       0.000000000000
  4       0.804513967931
  5      -0.281480757355
  6      -0.522996996781
 Sym=     1a
 Ene= 1.60491249536521E+00
 Spin=Beta
 Occup= 0.000000
  1      -0.000000000000
  2       0.000000000000
  3       0.000000000000
  4      -0.159328429409
  5       0.746006840797
  6      -0.646597436638
 Sym=     1a
 Ene= 1.60491249536524E+00
 Spin=Beta
 Occup= 0.000000
  1       0.000000000000
  2      -0.000000000000
  3      -0.000000000000
  4       0.572164073483
  5       0.603524959487
  6       0.555325036615
 Sym=     1a
 Ene= 2.51129458393963E+00
 Spin=Beta
 Occup= 0.000000
  1       1.547119741965
  2      -1.821485795028
  3       0.776690619969
  4      -0.000000000000
  5      -0.000000000000
  6      -0.000000000000
